Rank =    0  Free Memory =  3624 MB
  Input file(s): optm-descent.xml 

=====================================================
                    QMCPACK 3.7.9

       (c) Copyright 2003-  QMCPACK developers

                    Please cite:
 J. Kim et al. J. Phys. Cond. Mat. 30 195901 (2018)
      https://doi.org/10.1088/1361-648X/aab9c3

  Git branch: gvp
  Last git commit: f13eaba26d553d060e4d37a84a67d74cf1e6c0d8-dirty
  Last git commit date: Wed Aug 18 14:32:28 2021 -0700
  Last git commit subject: off by one bug fixed, temporary Jastrow fix
=====================================================
  Global options 

  Total number of MPI ranks = 1
  Number of MPI groups      = 1
  MPI group ID              = 0
  Number of ranks in group  = 1
  MPI ranks per node        = 1
  OMP 1st level threads     = 1
  OMP nested threading disabled or only 1 thread on the 2nd level

  Precision used in this calculation, see definitions in the manual:
  Base precision      = double
  Full precision      = double

  Structure-of-arrays (SoA) optimization enabled

  Input XML = optm-descent.xml

  Project = H4-descent
  date    = 2021-08-18 15:38:54 PDT
  host    = connie-Thelio

 Random Number
 -------------
  Offset for the random number seeds from input file (mod 1024): 651

  Range of prime numbers to use as seeds over processors and threads = 4877-4889


 Particle Set 
 ------------
  Name: e
  All the species have the same mass 1
  Particle set size: 4

 Particle Set 
 ------------
  Name: ion0
  All the species have the same mass 1
  Particle set size: 4

 Wavefunction setup: 
 ------------------- 
  Name: psi0
  Created SPOSet builder named 'LCAOBSet' of type molecularorbital
  LCAO: SoaAtomicBasisSet<MultiQuintic,0>
  AO BasisSet for H
   Angular momentum expanded in cartesian functions x^lx y^ly z^lz according to Gamess
Using log grid with default values: ri = 1e-06 rf = 100 npts = 1001
   R(n,l,m,s) 0 0 0 0
Expanding Ylm (angular function) according to Gamess using cartesian gaussians
Adding 1 cartesian gaussian orbitals for l= 0
  Setting cutoff radius 8.62979

   Maximum Angular Momentum  = 0
   Number of Radial functors = 1
   Basis size                = 1

Creating SPOSet in SlaterDetBuilder::put(xmlNodePtr cur).
spo_name = spo-up
  Building SPOSet 'spo-up' with 'LCAOBSet' basis set.
Creating SPOSet in SlaterDetBuilder::put(xmlNodePtr cur).
spo_name = spo-dn
  Building SPOSet 'spo-dn' with 'LCAOBSet' basis set.
Using Bryan's algorithm for MultiSlaterDeterminant expansion. 
Creating base determinant (up) for MSD expansion. 
Creating base determinant (down) for MSD expansion. 
Found determinant list. 
Reading CSFs.
Found 2 terms in the MSD expansion.
Norm of ci vector (sum of ci^2): 0.638005
Norm of qchem ci vector (sum of qchem_ci^2): 0.990143
Found 2 unique up determinants.
Found 2 unique down determinants.
Number of terms in pairs array: 1
Number of terms in pairs array: 1
CI coefficients are optimizable. 
  FermionWF = MultiSlaterDeterminantFast

   Jastrow
   -------
    Name: J2   Type: Two-Body   Function: Bspline

    Radial function for species: u - u
     Number of parameters: 10
     Cusp: -0.25
     Cutoff radius: 10

     Name                        Value Type Recompute Use Index
     ---- ---------------------------- ---- --------- --- -----
     uu_0                 5.680176e-01    1         1  ON     0
     uu_1                 3.699138e-01    1         1  ON     1
     uu_2                 2.108829e-01    1         1  ON     2
     uu_3                 9.267632e-02    1         1  ON     3
     uu_4                 5.276940e-03    1         1  ON     4
     uu_5                -3.330962e-02    1         1  ON     5
     uu_6                -2.484192e-02    1         1  ON     6
     uu_7                 8.603361e-03    1         1  ON     7
     uu_8                 3.763565e-02    1         1  ON     8
     uu_9                 2.979626e-02    1         1  ON     9

    Radial function for species: u - d
     Number of parameters: 10
     Cusp: -5.000000e-01
     Cutoff radius: 1.000000e+01

     Name                        Value Type Recompute Use Index
     ---- ---------------------------- ---- --------- --- -----
     ud_0                 9.168016e-01    1         1  ON     0
     ud_1                 5.756625e-01    1         1  ON     1
     ud_2                 3.465443e-01    1         1  ON     2
     ud_3                 1.896617e-01    1         1  ON     3
     ud_4                 8.747532e-02    1         1  ON     4
     ud_5                 3.482162e-02    1         1  ON     5
     ud_6                 3.708930e-02    1         1  ON     6
     ud_7                 6.355172e-02    1         1  ON     7
     ud_8                 7.720516e-02    1         1  ON     8
     ud_9                 5.828843e-02    1         1  ON     9


   Jastrow
   -------
    Name: J1   Type: One-Body   Function: Bspline

    Radial function for element: H
     Number of parameters: 10
     Cusp: 1.000000e+00
     Cutoff radius: 5.000000e+00

     Name                        Value Type Recompute Use Index
     ---- ---------------------------- ---- --------- --- -----
     eH_0                 1.539994e-02    1         1  ON     0
     eH_1                 2.935596e-02    1         1  ON     1
     eH_2                -1.133046e-01    1         1  ON     2
     eH_3                -9.452275e-02    1         1  ON     3
     eH_4                -1.063167e-01    1         1  ON     4
     eH_5                -7.820047e-02    1         1  ON     5
     eH_6                -3.640043e-02    1         1  ON     6
     eH_7                -6.827574e-03    1         1  ON     7
     eH_8                 8.345458e-03    1         1  ON     8
     eH_9                 4.849582e-03    1         1  ON     9

  QMCHamiltonian::addOperator Kinetic to H, physical Hamiltonian 
  QMCHamiltonian::addOperator ElecElec to H, physical Hamiltonian 
QMCHamiltonian::addOperatorType added type coulomb named ElecElec
  QMCHamiltonian::addOperator IonElec to H, physical Hamiltonian 
QMCHamiltonian::addOperatorType added type coulomb named IonElec
  QMCHamiltonian::addOperator IonIon to H, physical Hamiltonian 
QMCHamiltonian::addOperatorType added type coulomb named IonIon

  QMCHamiltonian::add2WalkerProperty added
    4 to P::PropertyList 
    0 to P::Collectables 
    starting Index of the observables in P::PropertyList = 10
ParticleSetPool::randomize 
  Initialization Execution time = 1.1549e-02 secs
=========================================================
 Summary of QMC systems 
=========================================================
ParticleSetPool has: 

  ParticleSet 'e' contains 4 particles :  u(2) d(2)

    u  1.0958951042e+00  5.1427708436e-01 -1.4428370103e+00
    u  6.0611124208e-01 -1.7216487456e-01 -7.7962973208e-01
    d -6.4575975825e-01  9.9108864642e-01  1.8564835946e-01
    d -7.5318592612e-02  2.7134132518e-01 -1.1765509155e+00

  Distance table for dissimilar particles (A-B):
    source: ion0  target: e
    Using structure-of-arrays (SoA) data layout
    Distance computations use open boundary conditions in 3D.

  Distance table for similar particles (A-A):
    source/target: e
    Using structure-of-arrays (SoA) data layout
    Distance computations use open boundary conditions in 3D.


  ParticleSet 'ion0' contains 4 particles :  H(4)

    H  0.0000000000e+00  0.0000000000e+00  0.0000000000e+00
    H  1.8897259877e+00  0.0000000000e+00  0.0000000000e+00
    H  0.0000000000e+00  0.0000000000e+00  2.8345889816e+00
    H  0.0000000000e+00  0.0000000000e+00  5.6691779632e+00

  Distance table for similar particles (A-A):
    source/target: ion0
    Using structure-of-arrays (SoA) data layout
    Distance computations use open boundary conditions in 3D.


  Hamiltonian h0
  Kinetic         Kinetic energy
  ElecElec        CoulombAB source=e

  IonElec         CoulombAA source/target ion0

  IonIon          CoulombAA source/target ion0


Loop execution max-interations = 100
Inside LM engine constructor, num_params is: 0 and _total_num_params is: 0

=========================================================
  Start QMCFixedSampleLinearOptimize
  File Root H4-descent.s000 append = no 
=========================================================
  Skip QMCDriver::putQMCInfo 
  Resetting Properties of the walkers 1 x 14
Omega from input file: 0.0000000000e+00
Current collection step: -1
Target: generalized variational principle
Omega from input file: 0.0000000000e+00
Current collection step: -1
Target: generalized variational principle
  Adding 1 walkers to 0 existing sets
  Total number of walkers: 1.0000000000e+00
  Total weight: 1.0000000000e+00

=========================================================
  Start VMC
  File Root H4-descent.s000 append = no 
=========================================================
Resetting walkers
  Using the current 1 walkers.
  Total number of walkers: 1.0000000000e+00
  Total weight: 1.0000000000e+00
  Resetting Properties of the walkers 1 x 14

<vmc function="put">
  qmc_counter=0  my_counter=0
  time step      = 5.0000000000e-02
  blocks         = 200
  steps          = 50
  substeps       = 1
  current        = 0
  target samples = 1.0000000000e+04
  walkers/mpi    = 1

  stepsbetweensamples = 1
<parameter name="blocks" condition="int">200</parameter>
<parameter name="blocks_between_recompute" condition="int">0</parameter>
<parameter name="check_properties" condition="int">100</parameter>
<parameter name="checkproperties" condition="int">100</parameter>
<parameter name="current" condition="int">0</parameter>
<parameter name="dmcwalkersperthread" condition="real">1.0000000000e+04</parameter>
<parameter name="fermionicweight" condition="real">1.0000000000e-04</parameter>
<parameter name="jastrowweight" condition="real">0.0000000000e+00</parameter>
<parameter name="maxcpusecs" condition="real">3.6000000000e+05</parameter>
<parameter name="mg_beta" condition="real">0.0000000000e+00</parameter>
<parameter name="mg_gamma" condition="real">0.0000000000e+00</parameter>
<parameter name="modifiedguiding" condition="string">ParameterDerivativeAdjusted</parameter>
<parameter name="orboptweight" condition="real">0.0000000000e+00</parameter>
<parameter name="record_configs" condition="int">0</parameter>
<parameter name="record_walkers" condition="int">1</parameter>
<parameter name="recordconfigs" condition="int">0</parameter>
<parameter name="recordwalkers" condition="int">1</parameter>
<parameter name="rewind" condition="int">0</parameter>
<parameter name="samples" condition="real">1.0000000000e+04</parameter>
<parameter name="samplesperthread" condition="real">1.0000000000e+04</parameter>
<parameter name="steps" condition="int">50</parameter>
<parameter name="stepsbetweensamples" condition="int">1</parameter>
<parameter name="store_configs" condition="int">0</parameter>
<parameter name="storeconfigs" condition="int">0</parameter>
<parameter name="sub_steps" condition="int">1</parameter>
<parameter name="substeps" condition="int">1</parameter>
<parameter name="tau" condition="au">5.0000000000e-02</parameter>
<parameter name="time_step" condition="au">5.0000000000e-02</parameter>
<parameter name="timestep" condition="au">5.0000000000e-02</parameter>
<parameter name="use_drift" condition="string">no</parameter>
<parameter name="usedrift" condition="string">no</parameter>
<parameter name="walkers" condition="int">1</parameter>
<parameter name="warmup_steps" condition="int">1000</parameter>
<parameter name="warmupsteps" condition="int">1000</parameter>
  DumpConfig==false Nothing (configurations, state) will be saved.
  Walker Samples are dumped every 1 steps.
</vmc>
  Set drift_modifier UNR parameter a = 1.0000000000e+00
  EstimatorManagerBase::add replace LocalEnergy estimator.
 Using QMCCostFunction::QMCCostFunction
 Using Default Cost Function: Cost = <|E-E_ff|^2>
  Set drift_modifier UNR parameter a = 1.0000000000e+00
  EstimatorManagerBase::add replace LocalEnergy estimator.
entering engine_start function
<optimization-report>
<vmc stage="main" blocks="200">
  Initial partition of walkers 0 1 
Using ParameterDeriv Adjusted Guiding Function

  Using Particle by Particle moves
  Walker moves without drift
  Total Sample Size   =10000
  Walker distribution on root = 0 1 
  Anonymous Buffer size per walker : 1704 Bytes.
MEMORY increase 0 MB VMC::resetRun
====================================================
  SimpleFixedNodeBranch::finalize after a VMC block
    QMC counter        = 0
    time step          = 0.05
    reference energy   = -2.15273
    reference variance = 1.01631e-17
====================================================
  Execution time = 2.2128e-01
</vmc>
<opt stage="setup">
  <log>
     Reading configurations from h5FileRoot H4-descent.s000
  QMCCostFunction is created with 1 threads.
  Using Nonlocal PP in Opt: no
   Number of samples loaded to each thread : 10000 
Value of Filter Bool: false before_first_block_sample: true onDescentStep: true
Before engine_checkConfigurations
Double check filter inside engine_checkConfig: false
 w_tot 9.9961e+03
  VMC Eavg = -1.8588e+00
  VMC Evar = 3.6463e-01
  Total weights = 9.996080421e+03
Energy Average: -1.858785948e+00
Energy Variance: 3.641583654e-01
Weight Total: 2.000000000e+04
VGS Total: 1.999216084e+04
Energy Standard Deviation: 6.034553550e-01
Energy Standard Error: 6.034553550e-03
Target Function Average: 5.605844412e-01
Norm of Gradient Vector: 7.846500831e+00
After engine_checkConfig
  Execution time = 9.0203e-02
  </log>
</opt>
<opt stage="main" walkers="10000">
  <log>
Value of descent_num: 0
Should only happen on first descent step
This is num_params_: 31
Number of Parameters: 31
Descent Number: 0
Finalization Descent Num (should be zero if not on last section): 0
Parameter Type step sizes:  TJF_2Body_eta=1.0000e-03 TJF_1Body_eta=1.0000e-033Body_eta1.0000e-04 F_eta=1.0000e-03 CI_eta=1.0000e-03 Orb_eta=1.0000e-03
Using ADAM
  Execution time = 3.1153e-01
  </log>
  <optVariables href="H4-descent.s000.opt.xml">
CSFcoeff_1 -5.195664e-01                3 1 ON  0
uu_0       5.690176e-01                 1 1 ON  1
uu_1       3.709138e-01                 1 1 ON  2
uu_2       2.118829e-01                 1 1 ON  3
uu_3       9.367632e-02                 1 1 ON  4
uu_4       4.276941e-03                 1 1 ON  5
uu_5       -3.430962e-02                1 1 ON  6
uu_6       -2.384192e-02                1 1 ON  7
uu_7       7.603361e-03                 1 1 ON  8
uu_8       3.663565e-02                 1 1 ON  9
uu_9       2.879626e-02                 1 1 ON  10
ud_0       9.178016e-01                 1 1 ON  11
ud_1       5.766625e-01                 1 1 ON  12
ud_2       3.455443e-01                 1 1 ON  13
ud_3       1.906617e-01                 1 1 ON  14
ud_4       8.847532e-02                 1 1 ON  15
ud_5       3.382162e-02                 1 1 ON  16
ud_6       3.608930e-02                 1 1 ON  17
ud_7       6.255172e-02                 1 1 ON  18
ud_8       7.620517e-02                 1 1 ON  19
ud_9       5.728843e-02                 1 1 ON  20
eH_0       1.639994e-02                 1 1 ON  21
eH_1       2.835596e-02                 1 1 ON  22
eH_2       -1.123046e-01                1 1 ON  23
eH_3       -9.552275e-02                1 1 ON  24
eH_4       -1.073167e-01                1 1 ON  25
eH_5       -7.920047e-02                1 1 ON  26
eH_6       -3.540043e-02                1 1 ON  27
eH_7       -5.827574e-03                1 1 ON  28
eH_8       9.345458e-03                 1 1 ON  29
eH_9       3.849582e-03                 1 1 ON  30
  </optVariables>
eH
Array
ud
Array
uu
Array
   Restore the number of walkers to 1, removing 0 walkers.
</opt>
</optimization-report>
  QMC Execution time = 3.1182e-01 secs
  Reusing QMCFixedSampleLinearOptimize
 Using QMCCostFunction::QMCCostFunction
 Using Default Cost Function: Cost = <|E-E_ff|^2>

=========================================================
  Start QMCFixedSampleLinearOptimize
  File Root H4-descent.s001 append = no 
=========================================================
  Skip QMCDriver::putQMCInfo 
  Resetting Properties of the walkers 1 x 14
Omega from input file: 0.0000e+00
Current collection step: -1
Target: generalized variational principle

=========================================================
  Start VMC
  File Root H4-descent.s001 append = no 
=========================================================
Using existing walkers 
  Resetting Properties of the walkers 1 x 14

<vmc function="put">
  qmc_counter=1  my_counter=0
  time step      = 5.0000e-02
  blocks         = 200
  steps          = 50
  substeps       = 1
  current        = 0
  target samples = 1.0000e+04
  walkers/mpi    = 1

  stepsbetweensamples = 1
<parameter name="blocks" condition="int">200</parameter>
<parameter name="blocks_between_recompute" condition="int">0</parameter>
<parameter name="check_properties" condition="int">100</parameter>
<parameter name="checkproperties" condition="int">100</parameter>
<parameter name="current" condition="int">0</parameter>
<parameter name="dmcwalkersperthread" condition="real">1.0000e+04</parameter>
<parameter name="fermionicweight" condition="real">1.0000e-04</parameter>
<parameter name="jastrowweight" condition="real">0.0000e+00</parameter>
<parameter name="maxcpusecs" condition="real">3.6000e+05</parameter>
<parameter name="mg_beta" condition="real">0.0000e+00</parameter>
<parameter name="mg_gamma" condition="real">0.0000e+00</parameter>
<parameter name="modifiedguiding" condition="string">ParameterDerivativeAdjusted</parameter>
<parameter name="orboptweight" condition="real">0.0000e+00</parameter>
<parameter name="record_configs" condition="int">0</parameter>
<parameter name="record_walkers" condition="int">1</parameter>
<parameter name="recordconfigs" condition="int">0</parameter>
<parameter name="recordwalkers" condition="int">1</parameter>
<parameter name="rewind" condition="int">0</parameter>
<parameter name="samples" condition="real">1.0000e+04</parameter>
<parameter name="samplesperthread" condition="real">1.0000e+04</parameter>
<parameter name="steps" condition="int">50</parameter>
<parameter name="stepsbetweensamples" condition="int">1</parameter>
<parameter name="store_configs" condition="int">0</parameter>
<parameter name="storeconfigs" condition="int">0</parameter>
<parameter name="sub_steps" condition="int">1</parameter>
<parameter name="substeps" condition="int">1</parameter>
<parameter name="tau" condition="au">5.0000e-02</parameter>
<parameter name="time_step" condition="au">5.0000e-02</parameter>
<parameter name="timestep" condition="au">5.0000e-02</parameter>
<parameter name="use_drift" condition="string">no</parameter>
<parameter name="usedrift" condition="string">no</parameter>
<parameter name="walkers" condition="int">1</parameter>
<parameter name="warmup_steps" condition="int">1000</parameter>
<parameter name="warmupsteps" condition="int">1000</parameter>
  DumpConfig==false Nothing (configurations, state) will be saved.
  Walker Samples are dumped every 1 steps.
</vmc>
    Restarting, cummulative properties:
      energy     = -2.1527e+00
      variance   = 0.0000e+00
      r2accepted = 1.0000e-10
      r2proposed = 1.0000e-10
  Set drift_modifier UNR parameter a = 1.0000e+00
  EstimatorManagerBase::add replace LocalEnergy estimator.
 Using QMCCostFunction::QMCCostFunction
 Using Default Cost Function: Cost = <|E-E_ff|^2>
  Set drift_modifier UNR parameter a = 1.0000e+00
  EstimatorManagerBase::add replace LocalEnergy estimator.
  EstimatorManagerBase::add replace LocalEnergy estimator.
entering engine_start function
<optimization-report>
<vmc stage="main" blocks="200">
  Cannot make clones again. Use existing 1 clones
  Initial partition of walkers 0 1 
Using ParameterDeriv Adjusted Guiding Function

  Using Particle by Particle moves
  Walker moves without drift
  Total Sample Size   =10000
  Walker distribution on root = 0 1 
  Anonymous Buffer size per walker : 1704 Bytes.
MEMORY increase 0 MB VMC::resetRun
====================================================
  SimpleFixedNodeBranch::finalize after a VMC block
    QMC counter        = 1
    time step          = 0.05
    reference energy   = -2.25976
    reference variance = -2.60489e-17
====================================================
  Execution time = 2.0851e-01
</vmc>
<opt stage="setup">
  <log>
     Reading configurations from h5FileRoot H4-descent.s001
  QMCCostFunction is created with 1 threads.
  Using Nonlocal PP in Opt: no
   Number of samples loaded to each thread : 10000 
Value of Filter Bool: false before_first_block_sample: true onDescentStep: true
Before engine_checkConfigurations
Double check filter inside engine_checkConfig: false
 w_tot 9.9981e+03
  VMC Eavg = -2.0379e+00
  VMC Evar = 2.6166e-01
  Total weights = 9.998097251e+03
Energy Average: -2.037901510e+00
Energy Variance: 2.607638118e-01
Weight Total: 2.000000000e+04
VGS Total: 1.999619450e+04
Energy Standard Deviation: 5.106503812e-01
Energy Standard Error: 5.106503812e-03
Target Function Average: 3.173011715e-01
Norm of Gradient Vector: 4.448935185e+00
After engine_checkConfig
  Execution time = 8.6824e-02
  </log>
</opt>
<opt stage="main" walkers="10000">
  <log>
Value of descent_num: 1
Number of Parameters: 31
Descent Number: 1
Finalization Descent Num (should be zero if not on last section): 0
Parameter Type step sizes:  TJF_2Body_eta=1.0000e-03 TJF_1Body_eta=1.0000e-033Body_eta1.0000e-04 F_eta=1.0000e-03 CI_eta=1.0000e-03 Orb_eta=1.0000e-03
Using ADAM
  Execution time = 2.9536e-01
  </log>
  <optVariables href="H4-descent.s001.opt.xml">
CSFcoeff_1 -5.185847e-01                3 1 ON  0
uu_0       5.691411e-01                 1 1 ON  1
uu_1       3.717109e-01                 1 1 ON  2
uu_2       2.127537e-01                 1 1 ON  3
uu_3       9.457227e-02                 1 1 ON  4
uu_4       4.494890e-03                 1 1 ON  5
uu_5       -3.499050e-02                1 1 ON  6
uu_6       -2.438103e-02                1 1 ON  7
uu_7       6.919046e-03                 1 1 ON  8
uu_8       3.571022e-02                 1 1 ON  9
uu_9       2.781109e-02                 1 1 ON  10
ud_0       9.188019e-01                 1 1 ON  11
ud_1       5.775396e-01                 1 1 ON  12
ud_2       3.445462e-01                 1 1 ON  13
ud_3       1.904023e-01                 1 1 ON  14
ud_4       8.939559e-02                 1 1 ON  15
ud_5       3.338359e-02                 1 1 ON  16
ud_6       3.514721e-02                 1 1 ON  17
ud_7       6.227178e-02                 1 1 ON  18
ud_8       7.631916e-02                 1 1 ON  19
ud_9       5.631315e-02                 1 1 ON  20
eH_0       1.724347e-02                 1 1 ON  21
eH_1       2.880054e-02                 1 1 ON  22
eH_2       -1.116327e-01                1 1 ON  23
eH_3       -9.599087e-02                1 1 ON  24
eH_4       -1.078244e-01                1 1 ON  25
eH_5       -8.016154e-02                1 1 ON  26
eH_6       -3.462492e-02                1 1 ON  27
eH_7       -4.935509e-03                1 1 ON  28
eH_8       1.034631e-02                 1 1 ON  29
eH_9       2.919739e-03                 1 1 ON  30
  </optVariables>
eH
Array
ud
Array
uu
Array
   Restore the number of walkers to 1, removing 0 walkers.
</opt>
</optimization-report>
  QMC Execution time = 2.9561e-01 secs
  Reusing QMCFixedSampleLinearOptimize
 Using QMCCostFunction::QMCCostFunction
 Using Default Cost Function: Cost = <|E-E_ff|^2>

=========================================================
  Start QMCFixedSampleLinearOptimize
  File Root H4-descent.s002 append = no 
=========================================================
  Skip QMCDriver::putQMCInfo 
  Resetting Properties of the walkers 1 x 14
Omega from input file: 0.0000e+00
Current collection step: -1
Target: generalized variational principle

=========================================================
  Start VMC
  File Root H4-descent.s002 append = no 
=========================================================
Using existing walkers 
  Resetting Properties of the walkers 1 x 14

<vmc function="put">
  qmc_counter=2  my_counter=0
  time step      = 5.0000e-02
  blocks         = 200
  steps          = 50
  substeps       = 1
  current        = 0
  target samples = 1.0000e+04
  walkers/mpi    = 1

  stepsbetweensamples = 1
<parameter name="blocks" condition="int">200</parameter>
<parameter name="blocks_between_recompute" condition="int">0</parameter>
<parameter name="check_properties" condition="int">100</parameter>
<parameter name="checkproperties" condition="int">100</parameter>
<parameter name="current" condition="int">0</parameter>
<parameter name="dmcwalkersperthread" condition="real">1.0000e+04</parameter>
<parameter name="fermionicweight" condition="real">1.0000e-04</parameter>
<parameter name="jastrowweight" condition="real">0.0000e+00</parameter>
<parameter name="maxcpusecs" condition="real">3.6000e+05</parameter>
<parameter name="mg_beta" condition="real">0.0000e+00</parameter>
<parameter name="mg_gamma" condition="real">0.0000e+00</parameter>
<parameter name="modifiedguiding" condition="string">ParameterDerivativeAdjusted</parameter>
<parameter name="orboptweight" condition="real">0.0000e+00</parameter>
<parameter name="record_configs" condition="int">0</parameter>
<parameter name="record_walkers" condition="int">1</parameter>
<parameter name="recordconfigs" condition="int">0</parameter>
<parameter name="recordwalkers" condition="int">1</parameter>
<parameter name="rewind" condition="int">0</parameter>
<parameter name="samples" condition="real">1.0000e+04</parameter>
<parameter name="samplesperthread" condition="real">1.0000e+04</parameter>
<parameter name="steps" condition="int">50</parameter>
<parameter name="stepsbetweensamples" condition="int">1</parameter>
<parameter name="store_configs" condition="int">0</parameter>
<parameter name="storeconfigs" condition="int">0</parameter>
<parameter name="sub_steps" condition="int">1</parameter>
<parameter name="substeps" condition="int">1</parameter>
<parameter name="tau" condition="au">5.0000e-02</parameter>
<parameter name="time_step" condition="au">5.0000e-02</parameter>
<parameter name="timestep" condition="au">5.0000e-02</parameter>
<parameter name="use_drift" condition="string">no</parameter>
<parameter name="usedrift" condition="string">no</parameter>
<parameter name="walkers" condition="int">1</parameter>
<parameter name="warmup_steps" condition="int">1000</parameter>
<parameter name="warmupsteps" condition="int">1000</parameter>
  DumpConfig==false Nothing (configurations, state) will be saved.
  Walker Samples are dumped every 1 steps.
</vmc>
    Restarting, cummulative properties:
      energy     = -2.2062e+00
      variance   = 0.0000e+00
      r2accepted = 1.0000e-10
      r2proposed = 1.0000e-10
  Set drift_modifier UNR parameter a = 1.0000e+00
  EstimatorManagerBase::add replace LocalEnergy estimator.
 Using QMCCostFunction::QMCCostFunction
 Using Default Cost Function: Cost = <|E-E_ff|^2>
  Set drift_modifier UNR parameter a = 1.0000e+00
  EstimatorManagerBase::add replace LocalEnergy estimator.
  EstimatorManagerBase::add replace LocalEnergy estimator.
entering engine_start function
<optimization-report>
<vmc stage="main" blocks="200">
  Cannot make clones again. Use existing 1 clones
  Initial partition of walkers 0 1 
Using ParameterDeriv Adjusted Guiding Function

  Using Particle by Particle moves
  Walker moves without drift
  Total Sample Size   =10000
  Walker distribution on root = 0 1 
  Anonymous Buffer size per walker : 1704 Bytes.
MEMORY increase 0 MB VMC::resetRun
====================================================
  SimpleFixedNodeBranch::finalize after a VMC block
    QMC counter        = 2
    time step          = 0.05
    reference energy   = -2.18923
    reference variance = -8.23113e-16
====================================================
  Execution time = 2.0345e-01
</vmc>
<opt stage="setup">
  <log>
     Reading configurations from h5FileRoot H4-descent.s002
  QMCCostFunction is created with 1 threads.
  Using Nonlocal PP in Opt: no
   Number of samples loaded to each thread : 10000 
Value of Filter Bool: false before_first_block_sample: true onDescentStep: true
Before engine_checkConfigurations
Double check filter inside engine_checkConfig: false
 w_tot 9.9991e+03
  VMC Eavg = -2.0276e+00
  VMC Evar = 1.5265e-01
  Total weights = 9.999081792e+03
Energy Average: -2.027620306e+00
Energy Variance: 1.526495522e-01
Weight Total: 2.000000000e+04
VGS Total: 1.999816358e+04
Energy Standard Deviation: 3.907039188e-01
Energy Standard Error: 3.907039188e-03
Target Function Average: 1.402335623e-01
Norm of Gradient Vector: 1.895109730e+00
After engine_checkConfig
  Execution time = 8.6894e-02
  </log>
</opt>
<opt stage="main" walkers="10000">
  <log>
Value of descent_num: 2
Number of Parameters: 31
Descent Number: 2
Finalization Descent Num (should be zero if not on last section): 0
Parameter Type step sizes:  TJF_2Body_eta=1.0000e-03 TJF_1Body_eta=1.0000e-033Body_eta1.0000e-04 F_eta=1.0000e-03 CI_eta=1.0000e-03 Orb_eta=1.0000e-03
Using ADAM
  Execution time = 2.9037e-01
  </log>
  <optVariables href="H4-descent.s002.opt.xml">
CSFcoeff_1 -5.176332e-01                3 1 ON  0
uu_0       5.691851e-01                 1 1 ON  1
uu_1       3.722124e-01                 1 1 ON  2
uu_2       2.136798e-01                 1 1 ON  3
uu_3       9.511422e-02                 1 1 ON  4
uu_4       5.094209e-03                 1 1 ON  5
uu_5       -3.574202e-02                1 1 ON  6
uu_6       -2.491748e-02                1 1 ON  7
uu_7       6.656489e-03                 1 1 ON  8
uu_8       3.475188e-02                 1 1 ON  9
uu_9       2.684084e-02                 1 1 ON  10
ud_0       9.196253e-01                 1 1 ON  11
ud_1       5.780623e-01                 1 1 ON  12
ud_2       3.437762e-01                 1 1 ON  13
ud_3       1.897972e-01                 1 1 ON  14
ud_4       9.008918e-02                 1 1 ON  15
ud_5       3.389337e-02                 1 1 ON  16
ud_6       3.423549e-02                 1 1 ON  17
ud_7       6.218815e-02                 1 1 ON  18
ud_8       7.621150e-02                 1 1 ON  19
ud_9       5.536561e-02                 1 1 ON  20
eH_0       1.806898e-02                 1 1 ON  21
eH_1       2.909772e-02                 1 1 ON  22
eH_2       -1.112201e-01                1 1 ON  23
eH_3       -9.628985e-02                1 1 ON  24
eH_4       -1.085158e-01                1 1 ON  25
eH_5       -8.085799e-02                1 1 ON  26
eH_6       -3.376644e-02                1 1 ON  27
eH_7       -4.407323e-03                1 1 ON  28
eH_8       1.062493e-02                 1 1 ON  29
eH_9       3.224223e-03                 1 1 ON  30
  </optVariables>
eH
Array
ud
Array
uu
Array
   Restore the number of walkers to 1, removing 0 walkers.
</opt>
</optimization-report>
  QMC Execution time = 2.9065e-01 secs
  Reusing QMCFixedSampleLinearOptimize
 Using QMCCostFunction::QMCCostFunction
 Using Default Cost Function: Cost = <|E-E_ff|^2>

=========================================================
  Start QMCFixedSampleLinearOptimize
  File Root H4-descent.s003 append = no 
=========================================================
  Skip QMCDriver::putQMCInfo 
  Resetting Properties of the walkers 1 x 14
Omega from input file: 0.0000e+00
Current collection step: -1
Target: generalized variational principle

=========================================================
  Start VMC
  File Root H4-descent.s003 append = no 
=========================================================
Using existing walkers 
  Resetting Properties of the walkers 1 x 14

<vmc function="put">
  qmc_counter=3  my_counter=0
  time step      = 5.0000e-02
  blocks         = 200
  steps          = 50
  substeps       = 1
  current        = 0
  target samples = 1.0000e+04
  walkers/mpi    = 1

  stepsbetweensamples = 1
<parameter name="blocks" condition="int">200</parameter>
<parameter name="blocks_between_recompute" condition="int">0</parameter>
<parameter name="check_properties" condition="int">100</parameter>
<parameter name="checkproperties" condition="int">100</parameter>
<parameter name="current" condition="int">0</parameter>
<parameter name="dmcwalkersperthread" condition="real">1.0000e+04</parameter>
<parameter name="fermionicweight" condition="real">1.0000e-04</parameter>
<parameter name="jastrowweight" condition="real">0.0000e+00</parameter>
<parameter name="maxcpusecs" condition="real">3.6000e+05</parameter>
<parameter name="mg_beta" condition="real">0.0000e+00</parameter>
<parameter name="mg_gamma" condition="real">0.0000e+00</parameter>
<parameter name="modifiedguiding" condition="string">ParameterDerivativeAdjusted</parameter>
<parameter name="orboptweight" condition="real">0.0000e+00</parameter>
<parameter name="record_configs" condition="int">0</parameter>
<parameter name="record_walkers" condition="int">1</parameter>
<parameter name="recordconfigs" condition="int">0</parameter>
<parameter name="recordwalkers" condition="int">1</parameter>
<parameter name="rewind" condition="int">0</parameter>
<parameter name="samples" condition="real">1.0000e+04</parameter>
<parameter name="samplesperthread" condition="real">1.0000e+04</parameter>
<parameter name="steps" condition="int">50</parameter>
<parameter name="stepsbetweensamples" condition="int">1</parameter>
<parameter name="store_configs" condition="int">0</parameter>
<parameter name="storeconfigs" condition="int">0</parameter>
<parameter name="sub_steps" condition="int">1</parameter>
<parameter name="substeps" condition="int">1</parameter>
<parameter name="tau" condition="au">5.0000e-02</parameter>
<parameter name="time_step" condition="au">5.0000e-02</parameter>
<parameter name="timestep" condition="au">5.0000e-02</parameter>
<parameter name="use_drift" condition="string">no</parameter>
<parameter name="usedrift" condition="string">no</parameter>
<parameter name="walkers" condition="int">1</parameter>
<parameter name="warmup_steps" condition="int">1000</parameter>
<parameter name="warmupsteps" condition="int">1000</parameter>
  DumpConfig==false Nothing (configurations, state) will be saved.
  Walker Samples are dumped every 1 steps.
</vmc>
    Restarting, cummulative properties:
      energy     = -2.2006e+00
      variance   = 0.0000e+00
      r2accepted = 1.0000e-10
      r2proposed = 1.0000e-10
  Set drift_modifier UNR parameter a = 1.0000e+00
  EstimatorManagerBase::add replace LocalEnergy estimator.
 Using QMCCostFunction::QMCCostFunction
 Using Default Cost Function: Cost = <|E-E_ff|^2>
  Set drift_modifier UNR parameter a = 1.0000e+00
  EstimatorManagerBase::add replace LocalEnergy estimator.
  EstimatorManagerBase::add replace LocalEnergy estimator.
entering engine_start function
<optimization-report>
<vmc stage="main" blocks="200">
  Cannot make clones again. Use existing 1 clones
  Initial partition of walkers 0 1 
Using ParameterDeriv Adjusted Guiding Function

  Using Particle by Particle moves
  Walker moves without drift
  Total Sample Size   =10000
  Walker distribution on root = 0 1 
  Anonymous Buffer size per walker : 1704 Bytes.
MEMORY increase 0 MB VMC::resetRun
====================================================
  SimpleFixedNodeBranch::finalize after a VMC block
    QMC counter        = 3
    time step          = 0.05
    reference energy   = -2.40485
    reference variance = 5.11477e-16
====================================================
  Execution time = 2.0591e-01
</vmc>
<opt stage="setup">
  <log>
     Reading configurations from h5FileRoot H4-descent.s003
  QMCCostFunction is created with 1 threads.
  Using Nonlocal PP in Opt: no
   Number of samples loaded to each thread : 10000 
Value of Filter Bool: false before_first_block_sample: true onDescentStep: true
Before engine_checkConfigurations
Double check filter inside engine_checkConfig: false
 w_tot 9.9964e+03
  VMC Eavg = -2.0410e+00
  VMC Evar = 1.7307e-01
  Total weights = 9.996414978e+03
Energy Average: -2.040983934e+00
Energy Variance: 1.728930024e-01
Weight Total: 2.000000000e+04
VGS Total: 1.999282996e+04
Energy Standard Deviation: 4.158040432e-01
Energy Standard Error: 4.158040432e-03
Target Function Average: 1.790583207e-01
Norm of Gradient Vector: 2.384817608e+00
After engine_checkConfig
  Execution time = 8.6054e-02
  </log>
</opt>
<opt stage="main" walkers="10000">
  <log>
Value of descent_num: 3
Number of Parameters: 31
Descent Number: 3
Finalization Descent Num (should be zero if not on last section): 0
Parameter Type step sizes:  TJF_2Body_eta=1.0000e-03 TJF_1Body_eta=1.0000e-033Body_eta1.0000e-04 F_eta=1.0000e-03 CI_eta=1.0000e-03 Orb_eta=1.0000e-03
Using ADAM
  Execution time = 2.9199e-01
  </log>
  <optVariables href="H4-descent.s003.opt.xml">
CSFcoeff_1 -5.167117e-01                3 1 ON  0
uu_0       5.695767e-01                 1 1 ON  1
uu_1       3.727346e-01                 1 1 ON  2
uu_2       2.144177e-01                 1 1 ON  3
uu_3       9.581541e-02                 1 1 ON  4
uu_4       5.849512e-03                 1 1 ON  5
uu_5       -3.645898e-02                1 1 ON  6
uu_6       -2.551583e-02                1 1 ON  7
uu_7       6.999105e-03                 1 1 ON  8
uu_8       3.380434e-02                 1 1 ON  9
uu_9       2.592819e-02                 1 1 ON  10
ud_0       9.201523e-01                 1 1 ON  11
ud_1       5.784305e-01                 1 1 ON  12
ud_2       3.433834e-01                 1 1 ON  13
ud_3       1.893671e-01                 1 1 ON  14
ud_4       9.059569e-02                 1 1 ON  15
ud_5       3.424684e-02                 1 1 ON  16
ud_6       3.410419e-02                 1 1 ON  17
ud_7       6.205558e-02                 1 1 ON  18
ud_8       7.568370e-02                 1 1 ON  19
ud_9       5.463400e-02                 1 1 ON  20
eH_0       1.878844e-02                 1 1 ON  21
eH_1       2.972226e-02                 1 1 ON  22
eH_2       -1.111056e-01                1 1 ON  23
eH_3       -9.684266e-02                1 1 ON  24
eH_4       -1.087815e-01                1 1 ON  25
eH_5       -8.129702e-02                1 1 ON  26
eH_6       -3.348319e-02                1 1 ON  27
eH_7       -3.822133e-03                1 1 ON  28
eH_8       1.115627e-02                 1 1 ON  29
eH_9       3.292544e-03                 1 1 ON  30
  </optVariables>
eH
Array
ud
Array
uu
Array
   Restore the number of walkers to 1, removing 0 walkers.
</opt>
</optimization-report>
  QMC Execution time = 2.9223e-01 secs
  Reusing QMCFixedSampleLinearOptimize
 Using QMCCostFunction::QMCCostFunction
 Using Default Cost Function: Cost = <|E-E_ff|^2>

=========================================================
  Start QMCFixedSampleLinearOptimize
  File Root H4-descent.s004 append = no 
=========================================================
  Skip QMCDriver::putQMCInfo 
  Resetting Properties of the walkers 1 x 14
Omega from input file: 0.0000e+00
Current collection step: -1
Target: generalized variational principle

=========================================================
  Start VMC
  File Root H4-descent.s004 append = no 
=========================================================
Using existing walkers 
  Resetting Properties of the walkers 1 x 14

<vmc function="put">
  qmc_counter=4  my_counter=0
  time step      = 5.0000e-02
  blocks         = 200
  steps          = 50
  substeps       = 1
  current        = 0
  target samples = 1.0000e+04
  walkers/mpi    = 1

  stepsbetweensamples = 1
<parameter name="blocks" condition="int">200</parameter>
<parameter name="blocks_between_recompute" condition="int">0</parameter>
<parameter name="check_properties" condition="int">100</parameter>
<parameter name="checkproperties" condition="int">100</parameter>
<parameter name="current" condition="int">0</parameter>
<parameter name="dmcwalkersperthread" condition="real">1.0000e+04</parameter>
<parameter name="fermionicweight" condition="real">1.0000e-04</parameter>
<parameter name="jastrowweight" condition="real">0.0000e+00</parameter>
<parameter name="maxcpusecs" condition="real">3.6000e+05</parameter>
<parameter name="mg_beta" condition="real">0.0000e+00</parameter>
<parameter name="mg_gamma" condition="real">0.0000e+00</parameter>
<parameter name="modifiedguiding" condition="string">ParameterDerivativeAdjusted</parameter>
<parameter name="orboptweight" condition="real">0.0000e+00</parameter>
<parameter name="record_configs" condition="int">0</parameter>
<parameter name="record_walkers" condition="int">1</parameter>
<parameter name="recordconfigs" condition="int">0</parameter>
<parameter name="recordwalkers" condition="int">1</parameter>
<parameter name="rewind" condition="int">0</parameter>
<parameter name="samples" condition="real">1.0000e+04</parameter>
<parameter name="samplesperthread" condition="real">1.0000e+04</parameter>
<parameter name="steps" condition="int">50</parameter>
<parameter name="stepsbetweensamples" condition="int">1</parameter>
<parameter name="store_configs" condition="int">0</parameter>
<parameter name="storeconfigs" condition="int">0</parameter>
<parameter name="sub_steps" condition="int">1</parameter>
<parameter name="substeps" condition="int">1</parameter>
<parameter name="tau" condition="au">5.0000e-02</parameter>
<parameter name="time_step" condition="au">5.0000e-02</parameter>
<parameter name="timestep" condition="au">5.0000e-02</parameter>
<parameter name="use_drift" condition="string">no</parameter>
<parameter name="usedrift" condition="string">no</parameter>
<parameter name="walkers" condition="int">1</parameter>
<parameter name="warmup_steps" condition="int">1000</parameter>
<parameter name="warmupsteps" condition="int">1000</parameter>
  DumpConfig==false Nothing (configurations, state) will be saved.
  Walker Samples are dumped every 1 steps.
</vmc>
    Restarting, cummulative properties:
      energy     = -2.2516e+00
      variance   = 0.0000e+00
      r2accepted = 1.0000e-10
      r2proposed = 1.0000e-10
  Set drift_modifier UNR parameter a = 1.0000e+00
  EstimatorManagerBase::add replace LocalEnergy estimator.
 Using QMCCostFunction::QMCCostFunction
 Using Default Cost Function: Cost = <|E-E_ff|^2>
  Set drift_modifier UNR parameter a = 1.0000e+00
  EstimatorManagerBase::add replace LocalEnergy estimator.
  EstimatorManagerBase::add replace LocalEnergy estimator.
entering engine_start function
<optimization-report>
<vmc stage="main" blocks="200">
  Cannot make clones again. Use existing 1 clones
  Initial partition of walkers 0 1 
Using ParameterDeriv Adjusted Guiding Function

  Using Particle by Particle moves
  Walker moves without drift
  Total Sample Size   =10000
  Walker distribution on root = 0 1 
  Anonymous Buffer size per walker : 1704 Bytes.
MEMORY increase 0 MB VMC::resetRun
====================================================
  SimpleFixedNodeBranch::finalize after a VMC block
    QMC counter        = 4
    time step          = 0.05
    reference energy   = -1.73331
    reference variance = 1.18657e-16
====================================================
  Execution time = 2.0361e-01
</vmc>
<opt stage="setup">
  <log>
     Reading configurations from h5FileRoot H4-descent.s004
  QMCCostFunction is created with 1 threads.
  Using Nonlocal PP in Opt: no
   Number of samples loaded to each thread : 10000 
Value of Filter Bool: false before_first_block_sample: true onDescentStep: true
Before engine_checkConfigurations
Double check filter inside engine_checkConfig: false
 w_tot 9.9991e+03
  VMC Eavg = -2.0509e+00
  VMC Evar = 1.7780e-01
  Total weights = 9.999089518e+03
Energy Average: -2.050859014e+00
Energy Variance: 1.778067325e-01
Weight Total: 2.000000000e+04
VGS Total: 1.999817904e+04
Energy Standard Deviation: 4.216713560e-01
Energy Standard Error: 4.216713560e-03
Target Function Average: 9.943603144e-02
Norm of Gradient Vector: 1.345484657e+00
After engine_checkConfig
  Execution time = 8.5230e-02
  </log>
</opt>
<opt stage="main" walkers="10000">
  <log>
Value of descent_num: 4
Number of Parameters: 31
Descent Number: 4
Finalization Descent Num (should be zero if not on last section): 0
Parameter Type step sizes:  TJF_2Body_eta=1.0000e-03 TJF_1Body_eta=1.0000e-033Body_eta1.0000e-04 F_eta=1.0000e-03 CI_eta=1.0000e-03 Orb_eta=1.0000e-03
Using ADAM
  Execution time = 2.8886e-01
  </log>
  <optVariables href="H4-descent.s004.opt.xml">
CSFcoeff_1 -5.157845e-01                3 1 ON  0
uu_0       5.699179e-01                 1 1 ON  1
uu_1       3.729716e-01                 1 1 ON  2
uu_2       2.150791e-01                 1 1 ON  3
uu_3       9.629811e-02                 1 1 ON  4
uu_4       6.684863e-03                 1 1 ON  5
uu_5       -3.709319e-02                1 1 ON  6
uu_6       -2.597597e-02                1 1 ON  7
uu_7       7.488669e-03                 1 1 ON  8
uu_8       3.283657e-02                 1 1 ON  9
uu_9       2.498908e-02                 1 1 ON  10
ud_0       9.200113e-01                 1 1 ON  11
ud_1       5.785823e-01                 1 1 ON  12
ud_2       3.431885e-01                 1 1 ON  13
ud_3       1.893020e-01                 1 1 ON  14
ud_4       9.115683e-02                 1 1 ON  15
ud_5       3.429381e-02                 1 1 ON  16
ud_6       3.397052e-02                 1 1 ON  17
ud_7       6.193393e-02                 1 1 ON  18
ud_8       7.528288e-02                 1 1 ON  19
ud_9       5.408288e-02                 1 1 ON  20
eH_0       1.954095e-02                 1 1 ON  21
eH_1       3.047565e-02                 1 1 ON  22
eH_2       -1.112599e-01                1 1 ON  23
eH_3       -9.736577e-02                1 1 ON  24
eH_4       -1.090049e-01                1 1 ON  25
eH_5       -8.164837e-02                1 1 ON  26
eH_6       -3.318947e-02                1 1 ON  27
eH_7       -3.315836e-03                1 1 ON  28
eH_8       1.132112e-02                 1 1 ON  29
eH_9       3.239371e-03                 1 1 ON  30
  </optVariables>
eH
Array
ud
Array
uu
Array
   Restore the number of walkers to 1, removing 0 walkers.
</opt>
</optimization-report>
  QMC Execution time = 2.8910e-01 secs
  Reusing QMCFixedSampleLinearOptimize
 Using QMCCostFunction::QMCCostFunction
 Using Default Cost Function: Cost = <|E-E_ff|^2>

=========================================================
  Start QMCFixedSampleLinearOptimize
  File Root H4-descent.s005 append = no 
=========================================================
  Skip QMCDriver::putQMCInfo 
  Resetting Properties of the walkers 1 x 14
Omega from input file: 0.0000e+00
Current collection step: -1
Target: generalized variational principle

=========================================================
  Start VMC
  File Root H4-descent.s005 append = no 
=========================================================
Using existing walkers 
  Resetting Properties of the walkers 1 x 14

<vmc function="put">
  qmc_counter=5  my_counter=0
  time step      = 5.0000e-02
  blocks         = 200
  steps          = 50
  substeps       = 1
  current        = 0
  target samples = 1.0000e+04
  walkers/mpi    = 1

  stepsbetweensamples = 1
<parameter name="blocks" condition="int">200</parameter>
<parameter name="blocks_between_recompute" condition="int">0</parameter>
<parameter name="check_properties" condition="int">100</parameter>
<parameter name="checkproperties" condition="int">100</parameter>
<parameter name="current" condition="int">0</parameter>
<parameter name="dmcwalkersperthread" condition="real">1.0000e+04</parameter>
<parameter name="fermionicweight" condition="real">1.0000e-04</parameter>
<parameter name="jastrowweight" condition="real">0.0000e+00</parameter>
<parameter name="maxcpusecs" condition="real">3.6000e+05</parameter>
<parameter name="mg_beta" condition="real">0.0000e+00</parameter>
<parameter name="mg_gamma" condition="real">0.0000e+00</parameter>
<parameter name="modifiedguiding" condition="string">ParameterDerivativeAdjusted</parameter>
<parameter name="orboptweight" condition="real">0.0000e+00</parameter>
<parameter name="record_configs" condition="int">0</parameter>
<parameter name="record_walkers" condition="int">1</parameter>
<parameter name="recordconfigs" condition="int">0</parameter>
<parameter name="recordwalkers" condition="int">1</parameter>
<parameter name="rewind" condition="int">0</parameter>
<parameter name="samples" condition="real">1.0000e+04</parameter>
<parameter name="samplesperthread" condition="real">1.0000e+04</parameter>
<parameter name="steps" condition="int">50</parameter>
<parameter name="stepsbetweensamples" condition="int">1</parameter>
<parameter name="store_configs" condition="int">0</parameter>
<parameter name="storeconfigs" condition="int">0</parameter>
<parameter name="sub_steps" condition="int">1</parameter>
<parameter name="substeps" condition="int">1</parameter>
<parameter name="tau" condition="au">5.0000e-02</parameter>
<parameter name="time_step" condition="au">5.0000e-02</parameter>
<parameter name="timestep" condition="au">5.0000e-02</parameter>
<parameter name="use_drift" condition="string">no</parameter>
<parameter name="usedrift" condition="string">no</parameter>
<parameter name="walkers" condition="int">1</parameter>
<parameter name="warmup_steps" condition="int">1000</parameter>
<parameter name="warmupsteps" condition="int">1000</parameter>
  DumpConfig==false Nothing (configurations, state) will be saved.
  Walker Samples are dumped every 1 steps.
</vmc>
    Restarting, cummulative properties:
      energy     = -2.1480e+00
      variance   = 0.0000e+00
      r2accepted = 1.0000e-10
      r2proposed = 1.0000e-10
  Set drift_modifier UNR parameter a = 1.0000e+00
  EstimatorManagerBase::add replace LocalEnergy estimator.
 Using QMCCostFunction::QMCCostFunction
 Using Default Cost Function: Cost = <|E-E_ff|^2>
  Set drift_modifier UNR parameter a = 1.0000e+00
  EstimatorManagerBase::add replace LocalEnergy estimator.
  EstimatorManagerBase::add replace LocalEnergy estimator.
entering engine_start function
<optimization-report>
<vmc stage="main" blocks="200">
  Cannot make clones again. Use existing 1 clones
  Initial partition of walkers 0 1 
Using ParameterDeriv Adjusted Guiding Function

  Using Particle by Particle moves
  Walker moves without drift
  Total Sample Size   =10000
  Walker distribution on root = 0 1 
  Anonymous Buffer size per walker : 1704 Bytes.
MEMORY increase 0 MB VMC::resetRun
====================================================
  SimpleFixedNodeBranch::finalize after a VMC block
    QMC counter        = 5
    time step          = 0.05
    reference energy   = -1.61662
    reference variance = -1.24856e-16
====================================================
  Execution time = 2.0390e-01
</vmc>
<opt stage="setup">
  <log>
     Reading configurations from h5FileRoot H4-descent.s005
  QMCCostFunction is created with 1 threads.
  Using Nonlocal PP in Opt: no
   Number of samples loaded to each thread : 10000 
Value of Filter Bool: false before_first_block_sample: true onDescentStep: true
Before engine_checkConfigurations
Double check filter inside engine_checkConfig: false
 w_tot 9.9991e+03
  VMC Eavg = -2.0624e+00
  VMC Evar = 1.6816e-01
  Total weights = 9.999086901e+03
Energy Average: -2.062425357e+00
Energy Variance: 1.681248398e-01
Weight Total: 2.000000000e+04
VGS Total: 1.999817380e+04
Energy Standard Deviation: 4.100302913e-01
Energy Standard Error: 4.100302913e-03
Target Function Average: 9.463775894e-02
Norm of Gradient Vector: 1.529047479e+00
After engine_checkConfig
  Execution time = 8.5984e-02
  </log>
</opt>
<opt stage="main" walkers="10000">
  <log>
Value of descent_num: 5
Number of Parameters: 31
Descent Number: 5
Finalization Descent Num (should be zero if not on last section): 0
Parameter Type step sizes:  TJF_2Body_eta=1.0000e-03 TJF_1Body_eta=1.0000e-033Body_eta1.0000e-04 F_eta=1.0000e-03 CI_eta=1.0000e-03 Orb_eta=1.0000e-03
Using ADAM
  Execution time = 2.8990e-01
  </log>
  <optVariables href="H4-descent.s005.opt.xml">
CSFcoeff_1 -5.148565e-01                3 1 ON  0
uu_0       5.701173e-01                 1 1 ON  1
uu_1       3.733747e-01                 1 1 ON  2
uu_2       2.158414e-01                 1 1 ON  3
uu_3       9.650523e-02                 1 1 ON  4
uu_4       7.394087e-03                 1 1 ON  5
uu_5       -3.738432e-02                1 1 ON  6
uu_6       -2.606525e-02                1 1 ON  7
uu_7       7.847201e-03                 1 1 ON  8
uu_8       3.186001e-02                 1 1 ON  9
uu_9       2.403525e-02                 1 1 ON  10
ud_0       9.199105e-01                 1 1 ON  11
ud_1       5.788613e-01                 1 1 ON  12
ud_2       3.429018e-01                 1 1 ON  13
ud_3       1.896234e-01                 1 1 ON  14
ud_4       9.154476e-02                 1 1 ON  15
ud_5       3.415882e-02                 1 1 ON  16
ud_6       3.395450e-02                 1 1 ON  17
ud_7       6.189283e-02                 1 1 ON  18
ud_8       7.484806e-02                 1 1 ON  19
ud_9       5.351602e-02                 1 1 ON  20
eH_0       2.014147e-02                 1 1 ON  21
eH_1       3.086572e-02                 1 1 ON  22
eH_2       -1.112272e-01                1 1 ON  23
eH_3       -9.763656e-02                1 1 ON  24
eH_4       -1.093851e-01                1 1 ON  25
eH_5       -8.187589e-02                1 1 ON  26
eH_6       -3.298113e-02                1 1 ON  27
eH_7       -2.823546e-03                1 1 ON  28
eH_8       1.170057e-02                 1 1 ON  29
eH_9       3.204517e-03                 1 1 ON  30
  </optVariables>
eH
Array
ud
Array
uu
Array
   Restore the number of walkers to 1, removing 0 walkers.
</opt>
</optimization-report>
  QMC Execution time = 2.9014e-01 secs
  Reusing QMCFixedSampleLinearOptimize
 Using QMCCostFunction::QMCCostFunction
 Using Default Cost Function: Cost = <|E-E_ff|^2>

=========================================================
  Start QMCFixedSampleLinearOptimize
  File Root H4-descent.s006 append = no 
=========================================================
  Skip QMCDriver::putQMCInfo 
  Resetting Properties of the walkers 1 x 14
Omega from input file: 0.0000e+00
Current collection step: -1
Target: generalized variational principle

=========================================================
  Start VMC
  File Root H4-descent.s006 append = no 
=========================================================
Using existing walkers 
  Resetting Properties of the walkers 1 x 14

<vmc function="put">
  qmc_counter=6  my_counter=0
  time step      = 5.0000e-02
  blocks         = 200
  steps          = 50
  substeps       = 1
  current        = 0
  target samples = 1.0000e+04
  walkers/mpi    = 1

  stepsbetweensamples = 1
<parameter name="blocks" condition="int">200</parameter>
<parameter name="blocks_between_recompute" condition="int">0</parameter>
<parameter name="check_properties" condition="int">100</parameter>
<parameter name="checkproperties" condition="int">100</parameter>
<parameter name="current" condition="int">0</parameter>
<parameter name="dmcwalkersperthread" condition="real">1.0000e+04</parameter>
<parameter name="fermionicweight" condition="real">1.0000e-04</parameter>
<parameter name="jastrowweight" condition="real">0.0000e+00</parameter>
<parameter name="maxcpusecs" condition="real">3.6000e+05</parameter>
<parameter name="mg_beta" condition="real">0.0000e+00</parameter>
<parameter name="mg_gamma" condition="real">0.0000e+00</parameter>
<parameter name="modifiedguiding" condition="string">ParameterDerivativeAdjusted</parameter>
<parameter name="orboptweight" condition="real">0.0000e+00</parameter>
<parameter name="record_configs" condition="int">0</parameter>
<parameter name="record_walkers" condition="int">1</parameter>
<parameter name="recordconfigs" condition="int">0</parameter>
<parameter name="recordwalkers" condition="int">1</parameter>
<parameter name="rewind" condition="int">0</parameter>
<parameter name="samples" condition="real">1.0000e+04</parameter>
<parameter name="samplesperthread" condition="real">1.0000e+04</parameter>
<parameter name="steps" condition="int">50</parameter>
<parameter name="stepsbetweensamples" condition="int">1</parameter>
<parameter name="store_configs" condition="int">0</parameter>
<parameter name="storeconfigs" condition="int">0</parameter>
<parameter name="sub_steps" condition="int">1</parameter>
<parameter name="substeps" condition="int">1</parameter>
<parameter name="tau" condition="au">5.0000e-02</parameter>
<parameter name="time_step" condition="au">5.0000e-02</parameter>
<parameter name="timestep" condition="au">5.0000e-02</parameter>
<parameter name="use_drift" condition="string">no</parameter>
<parameter name="usedrift" condition="string">no</parameter>
<parameter name="walkers" condition="int">1</parameter>
<parameter name="warmup_steps" condition="int">1000</parameter>
<parameter name="warmupsteps" condition="int">1000</parameter>
  DumpConfig==false Nothing (configurations, state) will be saved.
  Walker Samples are dumped every 1 steps.
</vmc>
    Restarting, cummulative properties:
      energy     = -2.0594e+00
      variance   = 0.0000e+00
      r2accepted = 1.0000e-10
      r2proposed = 1.0000e-10
  Set drift_modifier UNR parameter a = 1.0000e+00
  EstimatorManagerBase::add replace LocalEnergy estimator.
 Using QMCCostFunction::QMCCostFunction
 Using Default Cost Function: Cost = <|E-E_ff|^2>
  Set drift_modifier UNR parameter a = 1.0000e+00
  EstimatorManagerBase::add replace LocalEnergy estimator.
  EstimatorManagerBase::add replace LocalEnergy estimator.
entering engine_start function
<optimization-report>
<vmc stage="main" blocks="200">
  Cannot make clones again. Use existing 1 clones
  Initial partition of walkers 0 1 
Using ParameterDeriv Adjusted Guiding Function

  Using Particle by Particle moves
  Walker moves without drift
  Total Sample Size   =10000
  Walker distribution on root = 0 1 
  Anonymous Buffer size per walker : 1704 Bytes.
MEMORY increase 0 MB VMC::resetRun
====================================================
  SimpleFixedNodeBranch::finalize after a VMC block
    QMC counter        = 6
    time step          = 0.05
    reference energy   = -2.04217
    reference variance = 1.28885e-16
====================================================
  Execution time = 2.0406e-01
</vmc>
<opt stage="setup">
  <log>
     Reading configurations from h5FileRoot H4-descent.s006
  QMCCostFunction is created with 1 threads.
  Using Nonlocal PP in Opt: no
   Number of samples loaded to each thread : 10000 
Value of Filter Bool: false before_first_block_sample: true onDescentStep: true
Before engine_checkConfigurations
Double check filter inside engine_checkConfig: false
 w_tot 9.9986e+03
  VMC Eavg = -2.0627e+00
  VMC Evar = 2.1265e-01
  Total weights = 9.998596822e+03
Energy Average: -2.062709227e+00
Energy Variance: 2.073149057e-01
Weight Total: 2.000000000e+04
VGS Total: 1.999719364e+04
Energy Standard Deviation: 4.553184663e-01
Energy Standard Error: 4.553184663e-03
Target Function Average: 1.315166145e-01
Norm of Gradient Vector: 2.084172297e+00
After engine_checkConfig
  Execution time = 8.6462e-02
  </log>
</opt>
<opt stage="main" walkers="10000">
  <log>
Value of descent_num: 6
Number of Parameters: 31
Descent Number: 6
Finalization Descent Num (should be zero if not on last section): 0
Parameter Type step sizes:  TJF_2Body_eta=1.0000e-03 TJF_1Body_eta=1.0000e-033Body_eta1.0000e-04 F_eta=1.0000e-03 CI_eta=1.0000e-03 Orb_eta=1.0000e-03
Using ADAM
  Execution time = 2.9055e-01
  </log>
  <optVariables href="H4-descent.s006.opt.xml">
CSFcoeff_1 -5.139233e-01                3 1 ON  0
uu_0       5.701799e-01                 1 1 ON  1
uu_1       3.736787e-01                 1 1 ON  2
uu_2       2.164923e-01                 1 1 ON  3
uu_3       9.682094e-02                 1 1 ON  4
uu_4       8.185942e-03                 1 1 ON  5
uu_5       -3.777709e-02                1 1 ON  6
uu_6       -2.580931e-02                1 1 ON  7
uu_7       7.748815e-03                 1 1 ON  8
uu_8       3.106271e-02                 1 1 ON  9
uu_9       2.308253e-02                 1 1 ON  10
ud_0       9.197166e-01                 1 1 ON  11
ud_1       5.791573e-01                 1 1 ON  12
ud_2       3.429110e-01                 1 1 ON  13
ud_3       1.896849e-01                 1 1 ON  14
ud_4       9.186504e-02                 1 1 ON  15
ud_5       3.409320e-02                 1 1 ON  16
ud_6       3.379927e-02                 1 1 ON  17
ud_7       6.205003e-02                 1 1 ON  18
ud_8       7.426156e-02                 1 1 ON  19
ud_9       5.294612e-02                 1 1 ON  20
eH_0       2.067516e-02                 1 1 ON  21
eH_1       3.125931e-02                 1 1 ON  22
eH_2       -1.112697e-01                1 1 ON  23
eH_3       -9.751475e-02                1 1 ON  24
eH_4       -1.095949e-01                1 1 ON  25
eH_5       -8.213787e-02                1 1 ON  26
eH_6       -3.300173e-02                1 1 ON  27
eH_7       -2.252823e-03                1 1 ON  28
eH_8       1.173714e-02                 1 1 ON  29
eH_9       3.089374e-03                 1 1 ON  30
  </optVariables>
eH
Array
ud
Array
uu
Array
   Restore the number of walkers to 1, removing 0 walkers.
</opt>
</optimization-report>
  QMC Execution time = 2.9079e-01 secs
  Reusing QMCFixedSampleLinearOptimize
 Using QMCCostFunction::QMCCostFunction
 Using Default Cost Function: Cost = <|E-E_ff|^2>

=========================================================
  Start QMCFixedSampleLinearOptimize
  File Root H4-descent.s007 append = no 
=========================================================
  Skip QMCDriver::putQMCInfo 
  Resetting Properties of the walkers 1 x 14
Omega from input file: 0.0000e+00
Current collection step: -1
Target: generalized variational principle

=========================================================
  Start VMC
  File Root H4-descent.s007 append = no 
=========================================================
Using existing walkers 
  Resetting Properties of the walkers 1 x 14

<vmc function="put">
  qmc_counter=7  my_counter=0
  time step      = 5.0000e-02
  blocks         = 200
  steps          = 50
  substeps       = 1
  current        = 0
  target samples = 1.0000e+04
  walkers/mpi    = 1

  stepsbetweensamples = 1
<parameter name="blocks" condition="int">200</parameter>
<parameter name="blocks_between_recompute" condition="int">0</parameter>
<parameter name="check_properties" condition="int">100</parameter>
<parameter name="checkproperties" condition="int">100</parameter>
<parameter name="current" condition="int">0</parameter>
<parameter name="dmcwalkersperthread" condition="real">1.0000e+04</parameter>
<parameter name="fermionicweight" condition="real">1.0000e-04</parameter>
<parameter name="jastrowweight" condition="real">0.0000e+00</parameter>
<parameter name="maxcpusecs" condition="real">3.6000e+05</parameter>
<parameter name="mg_beta" condition="real">0.0000e+00</parameter>
<parameter name="mg_gamma" condition="real">0.0000e+00</parameter>
<parameter name="modifiedguiding" condition="string">ParameterDerivativeAdjusted</parameter>
<parameter name="orboptweight" condition="real">0.0000e+00</parameter>
<parameter name="record_configs" condition="int">0</parameter>
<parameter name="record_walkers" condition="int">1</parameter>
<parameter name="recordconfigs" condition="int">0</parameter>
<parameter name="recordwalkers" condition="int">1</parameter>
<parameter name="rewind" condition="int">0</parameter>
<parameter name="samples" condition="real">1.0000e+04</parameter>
<parameter name="samplesperthread" condition="real">1.0000e+04</parameter>
<parameter name="steps" condition="int">50</parameter>
<parameter name="stepsbetweensamples" condition="int">1</parameter>
<parameter name="store_configs" condition="int">0</parameter>
<parameter name="storeconfigs" condition="int">0</parameter>
<parameter name="sub_steps" condition="int">1</parameter>
<parameter name="substeps" condition="int">1</parameter>
<parameter name="tau" condition="au">5.0000e-02</parameter>
<parameter name="time_step" condition="au">5.0000e-02</parameter>
<parameter name="timestep" condition="au">5.0000e-02</parameter>
<parameter name="use_drift" condition="string">no</parameter>
<parameter name="usedrift" condition="string">no</parameter>
<parameter name="walkers" condition="int">1</parameter>
<parameter name="warmup_steps" condition="int">1000</parameter>
<parameter name="warmupsteps" condition="int">1000</parameter>
  DumpConfig==false Nothing (configurations, state) will be saved.
  Walker Samples are dumped every 1 steps.
</vmc>
    Restarting, cummulative properties:
      energy     = -2.0570e+00
      variance   = 0.0000e+00
      r2accepted = 1.0000e-10
      r2proposed = 1.0000e-10
  Set drift_modifier UNR parameter a = 1.0000e+00
  EstimatorManagerBase::add replace LocalEnergy estimator.
 Using QMCCostFunction::QMCCostFunction
 Using Default Cost Function: Cost = <|E-E_ff|^2>
  Set drift_modifier UNR parameter a = 1.0000e+00
  EstimatorManagerBase::add replace LocalEnergy estimator.
  EstimatorManagerBase::add replace LocalEnergy estimator.
entering engine_start function
<optimization-report>
<vmc stage="main" blocks="200">
  Cannot make clones again. Use existing 1 clones
  Initial partition of walkers 0 1 
Using ParameterDeriv Adjusted Guiding Function

  Using Particle by Particle moves
  Walker moves without drift
  Total Sample Size   =10000
  Walker distribution on root = 0 1 
  Anonymous Buffer size per walker : 1704 Bytes.
MEMORY increase 0 MB VMC::resetRun
====================================================
  SimpleFixedNodeBranch::finalize after a VMC block
    QMC counter        = 7
    time step          = 0.05
    reference energy   = -2.35287
    reference variance = 6.31808e-17
====================================================
  Execution time = 2.0542e-01
</vmc>
<opt stage="setup">
  <log>
     Reading configurations from h5FileRoot H4-descent.s007
  QMCCostFunction is created with 1 threads.
  Using Nonlocal PP in Opt: no
   Number of samples loaded to each thread : 10000 
Value of Filter Bool: false before_first_block_sample: true onDescentStep: true
Before engine_checkConfigurations
Double check filter inside engine_checkConfig: false
 w_tot 9.9990e+03
  VMC Eavg = -2.0479e+00
  VMC Evar = 1.9992e-01
  Total weights = 9.998985561e+03
Energy Average: -2.047900588e+00
Energy Variance: 1.998057384e-01
Weight Total: 2.000000000e+04
VGS Total: 1.999797112e+04
Energy Standard Deviation: 4.469963517e-01
Energy Standard Error: 4.469963517e-03
Target Function Average: 1.684849950e-01
Norm of Gradient Vector: 2.524508492e+00
After engine_checkConfig
  Execution time = 8.8154e-02
  </log>
</opt>
<opt stage="main" walkers="10000">
  <log>
Value of descent_num: 7
Number of Parameters: 31
Descent Number: 7
Finalization Descent Num (should be zero if not on last section): 0
Parameter Type step sizes:  TJF_2Body_eta=1.0000e-03 TJF_1Body_eta=1.0000e-033Body_eta1.0000e-04 F_eta=1.0000e-03 CI_eta=1.0000e-03 Orb_eta=1.0000e-03
Using ADAM
  Execution time = 2.9360e-01
  </log>
  <optVariables href="H4-descent.s007.opt.xml">
CSFcoeff_1 -5.129820e-01                3 1 ON  0
uu_0       5.704307e-01                 1 1 ON  1
uu_1       3.741164e-01                 1 1 ON  2
uu_2       2.172446e-01                 1 1 ON  3
uu_3       9.715394e-02                 1 1 ON  4
uu_4       9.028824e-03                 1 1 ON  5
uu_5       -3.816594e-02                1 1 ON  6
uu_6       -2.600874e-02                1 1 ON  7
uu_7       7.445582e-03                 1 1 ON  8
uu_8       3.067306e-02                 1 1 ON  9
uu_9       2.220713e-02                 1 1 ON  10
ud_0       9.194293e-01                 1 1 ON  11
ud_1       5.794026e-01                 1 1 ON  12
ud_2       3.430064e-01                 1 1 ON  13
ud_3       1.896505e-01                 1 1 ON  14
ud_4       9.216925e-02                 1 1 ON  15
ud_5       3.392253e-02                 1 1 ON  16
ud_6       3.376665e-02                 1 1 ON  17
ud_7       6.242170e-02                 1 1 ON  18
ud_8       7.358046e-02                 1 1 ON  19
ud_9       5.225553e-02                 1 1 ON  20
eH_0       2.123219e-02                 1 1 ON  21
eH_1       3.154483e-02                 1 1 ON  22
eH_2       -1.112338e-01                1 1 ON  23
eH_3       -9.750793e-02                1 1 ON  24
eH_4       -1.097465e-01                1 1 ON  25
eH_5       -8.246886e-02                1 1 ON  26
eH_6       -3.286787e-02                1 1 ON  27
eH_7       -1.626719e-03                1 1 ON  28
eH_8       1.200000e-02                 1 1 ON  29
eH_9       2.636895e-03                 1 1 ON  30
  </optVariables>
eH
Array
ud
Array
uu
Array
   Restore the number of walkers to 1, removing 0 walkers.
</opt>
</optimization-report>
  QMC Execution time = 2.9386e-01 secs
  Reusing QMCFixedSampleLinearOptimize
 Using QMCCostFunction::QMCCostFunction
 Using Default Cost Function: Cost = <|E-E_ff|^2>

=========================================================
  Start QMCFixedSampleLinearOptimize
  File Root H4-descent.s008 append = no 
=========================================================
  Skip QMCDriver::putQMCInfo 
  Resetting Properties of the walkers 1 x 14
Omega from input file: 0.0000e+00
Current collection step: -1
Target: generalized variational principle

=========================================================
  Start VMC
  File Root H4-descent.s008 append = no 
=========================================================
Using existing walkers 
  Resetting Properties of the walkers 1 x 14

<vmc function="put">
  qmc_counter=8  my_counter=0
  time step      = 5.0000e-02
  blocks         = 200
  steps          = 50
  substeps       = 1
  current        = 0
  target samples = 1.0000e+04
  walkers/mpi    = 1

  stepsbetweensamples = 1
<parameter name="blocks" condition="int">200</parameter>
<parameter name="blocks_between_recompute" condition="int">0</parameter>
<parameter name="check_properties" condition="int">100</parameter>
<parameter name="checkproperties" condition="int">100</parameter>
<parameter name="current" condition="int">0</parameter>
<parameter name="dmcwalkersperthread" condition="real">1.0000e+04</parameter>
<parameter name="fermionicweight" condition="real">1.0000e-04</parameter>
<parameter name="jastrowweight" condition="real">0.0000e+00</parameter>
<parameter name="maxcpusecs" condition="real">3.6000e+05</parameter>
<parameter name="mg_beta" condition="real">0.0000e+00</parameter>
<parameter name="mg_gamma" condition="real">0.0000e+00</parameter>
<parameter name="modifiedguiding" condition="string">ParameterDerivativeAdjusted</parameter>
<parameter name="orboptweight" condition="real">0.0000e+00</parameter>
<parameter name="record_configs" condition="int">0</parameter>
<parameter name="record_walkers" condition="int">1</parameter>
<parameter name="recordconfigs" condition="int">0</parameter>
<parameter name="recordwalkers" condition="int">1</parameter>
<parameter name="rewind" condition="int">0</parameter>
<parameter name="samples" condition="real">1.0000e+04</parameter>
<parameter name="samplesperthread" condition="real">1.0000e+04</parameter>
<parameter name="steps" condition="int">50</parameter>
<parameter name="stepsbetweensamples" condition="int">1</parameter>
<parameter name="store_configs" condition="int">0</parameter>
<parameter name="storeconfigs" condition="int">0</parameter>
<parameter name="sub_steps" condition="int">1</parameter>
<parameter name="substeps" condition="int">1</parameter>
<parameter name="tau" condition="au">5.0000e-02</parameter>
<parameter name="time_step" condition="au">5.0000e-02</parameter>
<parameter name="timestep" condition="au">5.0000e-02</parameter>
<parameter name="use_drift" condition="string">no</parameter>
<parameter name="usedrift" condition="string">no</parameter>
<parameter name="walkers" condition="int">1</parameter>
<parameter name="warmup_steps" condition="int">1000</parameter>
<parameter name="warmupsteps" condition="int">1000</parameter>
  DumpConfig==false Nothing (configurations, state) will be saved.
  Walker Samples are dumped every 1 steps.
</vmc>
    Restarting, cummulative properties:
      energy     = -2.0939e+00
      variance   = 0.0000e+00
      r2accepted = 1.0000e-10
      r2proposed = 1.0000e-10
  Set drift_modifier UNR parameter a = 1.0000e+00
  EstimatorManagerBase::add replace LocalEnergy estimator.
 Using QMCCostFunction::QMCCostFunction
 Using Default Cost Function: Cost = <|E-E_ff|^2>
  Set drift_modifier UNR parameter a = 1.0000e+00
  EstimatorManagerBase::add replace LocalEnergy estimator.
  EstimatorManagerBase::add replace LocalEnergy estimator.
entering engine_start function
<optimization-report>
<vmc stage="main" blocks="200">
  Cannot make clones again. Use existing 1 clones
  Initial partition of walkers 0 1 
Using ParameterDeriv Adjusted Guiding Function

  Using Particle by Particle moves
  Walker moves without drift
  Total Sample Size   =10000
  Walker distribution on root = 0 1 
  Anonymous Buffer size per walker : 1704 Bytes.
MEMORY increase 0 MB VMC::resetRun
====================================================
  SimpleFixedNodeBranch::finalize after a VMC block
    QMC counter        = 8
    time step          = 0.05
    reference energy   = -2.08048
    reference variance = -5.55404e-16
====================================================
  Execution time = 2.0439e-01
</vmc>
<opt stage="setup">
  <log>
     Reading configurations from h5FileRoot H4-descent.s008
  QMCCostFunction is created with 1 threads.
  Using Nonlocal PP in Opt: no
   Number of samples loaded to each thread : 10000 
Value of Filter Bool: false before_first_block_sample: true onDescentStep: true
Before engine_checkConfigurations
Double check filter inside engine_checkConfig: false
 w_tot 9.9982e+03
  VMC Eavg = -1.9882e+00
  VMC Evar = 2.5119e-01
  Total weights = 9.998157443e+03
Energy Average: -1.988154805e+00
Energy Variance: 2.510885626e-01
Weight Total: 2.000000000e+04
VGS Total: 1.999631489e+04
Energy Standard Deviation: 5.010873802e-01
Energy Standard Error: 5.010873802e-03
Target Function Average: 1.853623105e-01
Norm of Gradient Vector: 2.328194444e+00
After engine_checkConfig
  Execution time = 8.6870e-02
  </log>
</opt>
<opt stage="main" walkers="10000">
  <log>
Value of descent_num: 8
Number of Parameters: 31
Descent Number: 8
Finalization Descent Num (should be zero if not on last section): 0
Parameter Type step sizes:  TJF_2Body_eta=1.0000e-03 TJF_1Body_eta=1.0000e-033Body_eta1.0000e-04 F_eta=1.0000e-03 CI_eta=1.0000e-03 Orb_eta=1.0000e-03
Using ADAM
  Execution time = 2.9129e-01
  </log>
  <optVariables href="H4-descent.s008.opt.xml">
CSFcoeff_1 -5.120324e-01                3 1 ON  0
uu_0       5.707541e-01                 1 1 ON  1
uu_1       3.745185e-01                 1 1 ON  2
uu_2       2.180681e-01                 1 1 ON  3
uu_3       9.756719e-02                 1 1 ON  4
uu_4       9.814446e-03                 1 1 ON  5
uu_5       -3.817320e-02                1 1 ON  6
uu_6       -2.648504e-02                1 1 ON  7
uu_7       7.004303e-03                 1 1 ON  8
uu_8       3.025002e-02                 1 1 ON  9
uu_9       2.133887e-02                 1 1 ON  10
ud_0       9.192169e-01                 1 1 ON  11
ud_1       5.798037e-01                 1 1 ON  12
ud_2       3.434140e-01                 1 1 ON  13
ud_3       1.897750e-01                 1 1 ON  14
ud_4       9.230331e-02                 1 1 ON  15
ud_5       3.365549e-02                 1 1 ON  16
ud_6       3.365135e-02                 1 1 ON  17
ud_7       6.255971e-02                 1 1 ON  18
ud_8       7.284195e-02                 1 1 ON  19
ud_9       5.153624e-02                 1 1 ON  20
eH_0       2.173936e-02                 1 1 ON  21
eH_1       3.195949e-02                 1 1 ON  22
eH_2       -1.113637e-01                1 1 ON  23
eH_3       -9.718565e-02                1 1 ON  24
eH_4       -1.098186e-01                1 1 ON  25
eH_5       -8.281404e-02                1 1 ON  26
eH_6       -3.274701e-02                1 1 ON  27
eH_7       -9.789801e-04                1 1 ON  28
eH_8       1.238674e-02                 1 1 ON  29
eH_9       2.058207e-03                 1 1 ON  30
  </optVariables>
eH
Array
ud
Array
uu
Array
   Restore the number of walkers to 1, removing 0 walkers.
</opt>
</optimization-report>
  QMC Execution time = 2.9158e-01 secs
  Reusing QMCFixedSampleLinearOptimize
 Using QMCCostFunction::QMCCostFunction
 Using Default Cost Function: Cost = <|E-E_ff|^2>

=========================================================
  Start QMCFixedSampleLinearOptimize
  File Root H4-descent.s009 append = no 
=========================================================
  Skip QMCDriver::putQMCInfo 
  Resetting Properties of the walkers 1 x 14
Omega from input file: 0.0000e+00
Current collection step: -1
Target: generalized variational principle

=========================================================
  Start VMC
  File Root H4-descent.s009 append = no 
=========================================================
Using existing walkers 
  Resetting Properties of the walkers 1 x 14

<vmc function="put">
  qmc_counter=9  my_counter=0
  time step      = 5.0000e-02
  blocks         = 200
  steps          = 50
  substeps       = 1
  current        = 0
  target samples = 1.0000e+04
  walkers/mpi    = 1

  stepsbetweensamples = 1
<parameter name="blocks" condition="int">200</parameter>
<parameter name="blocks_between_recompute" condition="int">0</parameter>
<parameter name="check_properties" condition="int">100</parameter>
<parameter name="checkproperties" condition="int">100</parameter>
<parameter name="current" condition="int">0</parameter>
<parameter name="dmcwalkersperthread" condition="real">1.0000e+04</parameter>
<parameter name="fermionicweight" condition="real">1.0000e-04</parameter>
<parameter name="jastrowweight" condition="real">0.0000e+00</parameter>
<parameter name="maxcpusecs" condition="real">3.6000e+05</parameter>
<parameter name="mg_beta" condition="real">0.0000e+00</parameter>
<parameter name="mg_gamma" condition="real">0.0000e+00</parameter>
<parameter name="modifiedguiding" condition="string">ParameterDerivativeAdjusted</parameter>
<parameter name="orboptweight" condition="real">0.0000e+00</parameter>
<parameter name="record_configs" condition="int">0</parameter>
<parameter name="record_walkers" condition="int">1</parameter>
<parameter name="recordconfigs" condition="int">0</parameter>
<parameter name="recordwalkers" condition="int">1</parameter>
<parameter name="rewind" condition="int">0</parameter>
<parameter name="samples" condition="real">1.0000e+04</parameter>
<parameter name="samplesperthread" condition="real">1.0000e+04</parameter>
<parameter name="steps" condition="int">50</parameter>
<parameter name="stepsbetweensamples" condition="int">1</parameter>
<parameter name="store_configs" condition="int">0</parameter>
<parameter name="storeconfigs" condition="int">0</parameter>
<parameter name="sub_steps" condition="int">1</parameter>
<parameter name="substeps" condition="int">1</parameter>
<parameter name="tau" condition="au">5.0000e-02</parameter>
<parameter name="time_step" condition="au">5.0000e-02</parameter>
<parameter name="timestep" condition="au">5.0000e-02</parameter>
<parameter name="use_drift" condition="string">no</parameter>
<parameter name="usedrift" condition="string">no</parameter>
<parameter name="walkers" condition="int">1</parameter>
<parameter name="warmup_steps" condition="int">1000</parameter>
<parameter name="warmupsteps" condition="int">1000</parameter>
[...]
<parameter name="walkers" condition="int">1</parameter>
<parameter name="warmup_steps" condition="int">1000</parameter>
<parameter name="warmupsteps" condition="int">1000</parameter>
  DumpConfig==false Nothing (configurations, state) will be saved.
  Walker Samples are dumped every 1 steps.
</vmc>
    Restarting, cummulative properties:
      energy     = -2.0060e+00
      variance   = 0.0000e+00
      r2accepted = 1.0000e-10
      r2proposed = 1.0000e-10
  Set drift_modifier UNR parameter a = 1.0000e+00
  EstimatorManagerBase::add replace LocalEnergy estimator.
 Using QMCCostFunction::QMCCostFunction
 Using Default Cost Function: Cost = <|E-E_ff|^2>
  Set drift_modifier UNR parameter a = 1.0000e+00
  EstimatorManagerBase::add replace LocalEnergy estimator.
  EstimatorManagerBase::add replace LocalEnergy estimator.
entering engine_start function
<optimization-report>
<vmc stage="main" blocks="200">
  Cannot make clones again. Use existing 1 clones
  Initial partition of walkers 0 1 
Using ParameterDeriv Adjusted Guiding Function

  Using Particle by Particle moves
  Walker moves without drift
  Total Sample Size   =10000
  Walker distribution on root = 0 1 
  Anonymous Buffer size per walker : 1704 Bytes.
MEMORY increase 0 MB VMC::resetRun
====================================================
  SimpleFixedNodeBranch::finalize after a VMC block
    QMC counter        = 97
    time step          = 0.05
    reference energy   = -1.83437
    reference variance = -1.90803e-16
====================================================
  Execution time = 2.0601e-01
</vmc>
<opt stage="setup">
  <log>
     Reading configurations from h5FileRoot H4-descent.s097
  QMCCostFunction is created with 1 threads.
  Using Nonlocal PP in Opt: no
   Number of samples loaded to each thread : 10000 
Value of Filter Bool: false before_first_block_sample: true onDescentStep: true
Before engine_checkConfigurations
Double check filter inside engine_checkConfig: false
 w_tot 9.9973e+03
  VMC Eavg = -2.0399e+00
  VMC Evar = 2.4906e-01
  Total weights = 9.997345509e+03
Energy Average: -2.039851973e+00
Energy Variance: 2.456701435e-01
Weight Total: 2.000000000e+04
VGS Total: 1.999469102e+04
Energy Standard Deviation: 4.956512317e-01
Energy Standard Error: 4.956512317e-03
Target Function Average: 1.400789690e-01
Norm of Gradient Vector: 2.216394869e+00
After engine_checkConfig
  Execution time = 8.6988e-02
  </log>
</opt>
<opt stage="main" walkers="10000">
  <log>
Value of descent_num: 97
Number of Parameters: 31
Descent Number: 97
Finalization Descent Num (should be zero if not on last section): 0
Parameter Type step sizes:  TJF_2Body_eta=1.0000e-03 TJF_1Body_eta=1.0000e-033Body_eta1.0000e-04 F_eta=1.0000e-03 CI_eta=1.0000e-03 Orb_eta=1.0000e-03
Using ADAM
  Execution time = 2.9302e-01
  </log>
  <optVariables href="H4-descent.s097.opt.xml">
CSFcoeff_1 -4.276062e-01                3 1 ON  0
uu_0       5.757012e-01                 1 1 ON  1
uu_1       3.887356e-01                 1 1 ON  2
uu_2       2.744700e-01                 1 1 ON  3
uu_3       1.353483e-01                 1 1 ON  4
uu_4       1.619356e-02                 1 1 ON  5
uu_5       -3.159610e-02                1 1 ON  6
uu_6       -4.913642e-02                1 1 ON  7
uu_7       -2.741559e-02                1 1 ON  8
uu_8       -3.671260e-03                1 1 ON  9
uu_9       4.572611e-03                 1 1 ON  10
ud_0       9.058254e-01                 1 1 ON  11
ud_1       5.686431e-01                 1 1 ON  12
ud_2       3.564020e-01                 1 1 ON  13
ud_3       2.090686e-01                 1 1 ON  14
ud_4       1.024737e-01                 1 1 ON  15
ud_5       4.268498e-02                 1 1 ON  16
ud_6       2.431102e-02                 1 1 ON  17
ud_7       4.427931e-02                 1 1 ON  18
ud_8       6.573702e-02                 1 1 ON  19
ud_9       3.629687e-02                 1 1 ON  20
eH_0       4.354455e-02                 1 1 ON  21
eH_1       3.156011e-02                 1 1 ON  22
eH_2       -1.109690e-01                1 1 ON  23
eH_3       -8.969312e-02                1 1 ON  24
eH_4       -1.152894e-01                1 1 ON  25
eH_5       -7.831617e-02                1 1 ON  26
eH_6       -2.494643e-02                1 1 ON  27
eH_7       5.999889e-03                 1 1 ON  28
eH_8       2.943158e-02                 1 1 ON  29
eH_9       1.969165e-02                 1 1 ON  30
  </optVariables>
eH
Array
ud
Array
uu
Array
   Restore the number of walkers to 1, removing 0 walkers.
</opt>
</optimization-report>
  QMC Execution time = 2.9325e-01 secs
  Reusing QMCFixedSampleLinearOptimize
 Using QMCCostFunction::QMCCostFunction
 Using Default Cost Function: Cost = <|E-E_ff|^2>

=========================================================
  Start QMCFixedSampleLinearOptimize
  File Root H4-descent.s098 append = no 
=========================================================
  Skip QMCDriver::putQMCInfo 
  Resetting Properties of the walkers 1 x 14
Omega from input file: 0.0000e+00
Current collection step: -1
Target: generalized variational principle

=========================================================
  Start VMC
  File Root H4-descent.s098 append = no 
=========================================================
Using existing walkers 
  Resetting Properties of the walkers 1 x 14

<vmc function="put">
  qmc_counter=98  my_counter=0
  time step      = 5.0000e-02
  blocks         = 200
  steps          = 50
  substeps       = 1
  current        = 0
  target samples = 1.0000e+04
  walkers/mpi    = 1

  stepsbetweensamples = 1
<parameter name="blocks" condition="int">200</parameter>
<parameter name="blocks_between_recompute" condition="int">0</parameter>
<parameter name="check_properties" condition="int">100</parameter>
<parameter name="checkproperties" condition="int">100</parameter>
<parameter name="current" condition="int">0</parameter>
<parameter name="dmcwalkersperthread" condition="real">1.0000e+04</parameter>
<parameter name="fermionicweight" condition="real">1.0000e-04</parameter>
<parameter name="jastrowweight" condition="real">0.0000e+00</parameter>
<parameter name="maxcpusecs" condition="real">3.6000e+05</parameter>
<parameter name="mg_beta" condition="real">0.0000e+00</parameter>
<parameter name="mg_gamma" condition="real">0.0000e+00</parameter>
<parameter name="modifiedguiding" condition="string">ParameterDerivativeAdjusted</parameter>
<parameter name="orboptweight" condition="real">0.0000e+00</parameter>
<parameter name="record_configs" condition="int">0</parameter>
<parameter name="record_walkers" condition="int">1</parameter>
<parameter name="recordconfigs" condition="int">0</parameter>
<parameter name="recordwalkers" condition="int">1</parameter>
<parameter name="rewind" condition="int">0</parameter>
<parameter name="samples" condition="real">1.0000e+04</parameter>
<parameter name="samplesperthread" condition="real">1.0000e+04</parameter>
<parameter name="steps" condition="int">50</parameter>
<parameter name="stepsbetweensamples" condition="int">1</parameter>
<parameter name="store_configs" condition="int">0</parameter>
<parameter name="storeconfigs" condition="int">0</parameter>
<parameter name="sub_steps" condition="int">1</parameter>
<parameter name="substeps" condition="int">1</parameter>
<parameter name="tau" condition="au">5.0000e-02</parameter>
<parameter name="time_step" condition="au">5.0000e-02</parameter>
<parameter name="timestep" condition="au">5.0000e-02</parameter>
<parameter name="use_drift" condition="string">no</parameter>
<parameter name="usedrift" condition="string">no</parameter>
<parameter name="walkers" condition="int">1</parameter>
<parameter name="warmup_steps" condition="int">1000</parameter>
<parameter name="warmupsteps" condition="int">1000</parameter>
  DumpConfig==false Nothing (configurations, state) will be saved.
  Walker Samples are dumped every 1 steps.
</vmc>
    Restarting, cummulative properties:
      energy     = -2.0042e+00
      variance   = 0.0000e+00
      r2accepted = 1.0000e-10
      r2proposed = 1.0000e-10
  Set drift_modifier UNR parameter a = 1.0000e+00
  EstimatorManagerBase::add replace LocalEnergy estimator.
 Using QMCCostFunction::QMCCostFunction
 Using Default Cost Function: Cost = <|E-E_ff|^2>
  Set drift_modifier UNR parameter a = 1.0000e+00
  EstimatorManagerBase::add replace LocalEnergy estimator.
  EstimatorManagerBase::add replace LocalEnergy estimator.
entering engine_start function
<optimization-report>
<vmc stage="main" blocks="200">
  Cannot make clones again. Use existing 1 clones
  Initial partition of walkers 0 1 
Using ParameterDeriv Adjusted Guiding Function

  Using Particle by Particle moves
  Walker moves without drift
  Total Sample Size   =10000
  Walker distribution on root = 0 1 
  Anonymous Buffer size per walker : 1704 Bytes.
MEMORY increase 0 MB VMC::resetRun
====================================================
  SimpleFixedNodeBranch::finalize after a VMC block
    QMC counter        = 98
    time step          = 0.05
    reference energy   = -2.08417
    reference variance = -3.54265e-16
====================================================
  Execution time = 2.0616e-01
</vmc>
<opt stage="setup">
  <log>
     Reading configurations from h5FileRoot H4-descent.s098
  QMCCostFunction is created with 1 threads.
  Using Nonlocal PP in Opt: no
   Number of samples loaded to each thread : 10000 
Value of Filter Bool: false before_first_block_sample: true onDescentStep: true
Before engine_checkConfigurations
Double check filter inside engine_checkConfig: false
 w_tot 9.9986e+03
  VMC Eavg = -2.0937e+00
  VMC Evar = 1.6333e-01
  Total weights = 9.998570503e+03
Energy Average: -2.093676768e+00
Energy Variance: 1.633011223e-01
Weight Total: 2.000000000e+04
VGS Total: 1.999714101e+04
Energy Standard Deviation: 4.041053357e-01
Energy Standard Error: 4.041053357e-03
Target Function Average: 1.849402245e-01
Norm of Gradient Vector: 2.824012210e+00
After engine_checkConfig
  Execution time = 8.6682e-02
  </log>
</opt>
<opt stage="main" walkers="10000">
  <log>
Value of descent_num: 98
Number of Parameters: 31
Descent Number: 98
Finalization Descent Num (should be zero if not on last section): 0
Parameter Type step sizes:  TJF_2Body_eta=1.0000e-03 TJF_1Body_eta=1.0000e-033Body_eta1.0000e-04 F_eta=1.0000e-03 CI_eta=1.0000e-03 Orb_eta=1.0000e-03
Using ADAM
  Execution time = 2.9287e-01
  </log>
  <optVariables href="H4-descent.s098.opt.xml">
CSFcoeff_1 -4.266670e-01                3 1 ON  0
uu_0       5.756349e-01                 1 1 ON  1
uu_1       3.886464e-01                 1 1 ON  2
uu_2       2.752237e-01                 1 1 ON  3
uu_3       1.358367e-01                 1 1 ON  4
uu_4       1.639565e-02                 1 1 ON  5
uu_5       -3.185393e-02                1 1 ON  6
uu_6       -4.923331e-02                1 1 ON  7
uu_7       -2.789190e-02                1 1 ON  8
uu_8       -4.114752e-03                1 1 ON  9
uu_9       4.632433e-03                 1 1 ON  10
ud_0       9.058897e-01                 1 1 ON  11
ud_1       5.688279e-01                 1 1 ON  12
ud_2       3.568012e-01                 1 1 ON  13
ud_3       2.088883e-01                 1 1 ON  14
ud_4       1.023776e-01                 1 1 ON  15
ud_5       4.275705e-02                 1 1 ON  16
ud_6       2.392533e-02                 1 1 ON  17
ud_7       4.464481e-02                 1 1 ON  18
ud_8       6.573524e-02                 1 1 ON  19
ud_9       3.590732e-02                 1 1 ON  20
eH_0       4.363644e-02                 1 1 ON  21
eH_1       3.130562e-02                 1 1 ON  22
eH_2       -1.110442e-01                1 1 ON  23
eH_3       -8.931210e-02                1 1 ON  24
eH_4       -1.150650e-01                1 1 ON  25
eH_5       -7.878536e-02                1 1 ON  26
eH_6       -2.465032e-02                1 1 ON  27
eH_7       6.377974e-03                 1 1 ON  28
eH_8       2.919469e-02                 1 1 ON  29
eH_9       1.987748e-02                 1 1 ON  30
  </optVariables>
eH
Array
ud
Array
uu
Array
   Restore the number of walkers to 1, removing 0 walkers.
</opt>
</optimization-report>
  QMC Execution time = 2.9310e-01 secs
  Reusing QMCFixedSampleLinearOptimize
 Using QMCCostFunction::QMCCostFunction
 Using Default Cost Function: Cost = <|E-E_ff|^2>

=========================================================
  Start QMCFixedSampleLinearOptimize
  File Root H4-descent.s099 append = no 
=========================================================
  Skip QMCDriver::putQMCInfo 
  Resetting Properties of the walkers 1 x 14
Omega from input file: 0.0000e+00
Current collection step: -1
Target: generalized variational principle

=========================================================
  Start VMC
  File Root H4-descent.s099 append = no 
=========================================================
Using existing walkers 
  Resetting Properties of the walkers 1 x 14

<vmc function="put">
  qmc_counter=99  my_counter=0
  time step      = 5.0000e-02
  blocks         = 200
  steps          = 50
  substeps       = 1
  current        = 0
  target samples = 1.0000e+04
  walkers/mpi    = 1

  stepsbetweensamples = 1
<parameter name="blocks" condition="int">200</parameter>
<parameter name="blocks_between_recompute" condition="int">0</parameter>
<parameter name="check_properties" condition="int">100</parameter>
<parameter name="checkproperties" condition="int">100</parameter>
<parameter name="current" condition="int">0</parameter>
<parameter name="dmcwalkersperthread" condition="real">1.0000e+04</parameter>
<parameter name="fermionicweight" condition="real">1.0000e-04</parameter>
<parameter name="jastrowweight" condition="real">0.0000e+00</parameter>
<parameter name="maxcpusecs" condition="real">3.6000e+05</parameter>
<parameter name="mg_beta" condition="real">0.0000e+00</parameter>
<parameter name="mg_gamma" condition="real">0.0000e+00</parameter>
<parameter name="modifiedguiding" condition="string">ParameterDerivativeAdjusted</parameter>
<parameter name="orboptweight" condition="real">0.0000e+00</parameter>
<parameter name="record_configs" condition="int">0</parameter>
<parameter name="record_walkers" condition="int">1</parameter>
<parameter name="recordconfigs" condition="int">0</parameter>
<parameter name="recordwalkers" condition="int">1</parameter>
<parameter name="rewind" condition="int">0</parameter>
<parameter name="samples" condition="real">1.0000e+04</parameter>
<parameter name="samplesperthread" condition="real">1.0000e+04</parameter>
<parameter name="steps" condition="int">50</parameter>
<parameter name="stepsbetweensamples" condition="int">1</parameter>
<parameter name="store_configs" condition="int">0</parameter>
<parameter name="storeconfigs" condition="int">0</parameter>
<parameter name="sub_steps" condition="int">1</parameter>
<parameter name="substeps" condition="int">1</parameter>
<parameter name="tau" condition="au">5.0000e-02</parameter>
<parameter name="time_step" condition="au">5.0000e-02</parameter>
<parameter name="timestep" condition="au">5.0000e-02</parameter>
<parameter name="use_drift" condition="string">no</parameter>
<parameter name="usedrift" condition="string">no</parameter>
<parameter name="walkers" condition="int">1</parameter>
<parameter name="warmup_steps" condition="int">1000</parameter>
<parameter name="warmupsteps" condition="int">1000</parameter>
  DumpConfig==false Nothing (configurations, state) will be saved.
  Walker Samples are dumped every 1 steps.
</vmc>
    Restarting, cummulative properties:
      energy     = -2.0050e+00
      variance   = 0.0000e+00
      r2accepted = 1.0000e-10
      r2proposed = 1.0000e-10
  Set drift_modifier UNR parameter a = 1.0000e+00
  EstimatorManagerBase::add replace LocalEnergy estimator.
 Using QMCCostFunction::QMCCostFunction
 Using Default Cost Function: Cost = <|E-E_ff|^2>
  Set drift_modifier UNR parameter a = 1.0000e+00
  EstimatorManagerBase::add replace LocalEnergy estimator.
  EstimatorManagerBase::add replace LocalEnergy estimator.
entering engine_start function
<optimization-report>
<vmc stage="main" blocks="200">
  Cannot make clones again. Use existing 1 clones
  Initial partition of walkers 0 1 
Using ParameterDeriv Adjusted Guiding Function

  Using Particle by Particle moves
  Walker moves without drift
  Total Sample Size   =10000
  Walker distribution on root = 0 1 
  Anonymous Buffer size per walker : 1704 Bytes.
MEMORY increase 0 MB VMC::resetRun
====================================================
  SimpleFixedNodeBranch::finalize after a VMC block
    QMC counter        = 99
    time step          = 0.05
    reference energy   = -1.81627
    reference variance = 3.00935e-16
====================================================
  Execution time = 2.0516e-01
</vmc>
<opt stage="setup">
  <log>
     Reading configurations from h5FileRoot H4-descent.s099
  QMCCostFunction is created with 1 threads.
  Using Nonlocal PP in Opt: no
   Number of samples loaded to each thread : 10000 
Value of Filter Bool: false before_first_block_sample: true onDescentStep: true
Before engine_checkConfigurations
Double check filter inside engine_checkConfig: false
 w_tot 9.9988e+03
  VMC Eavg = -2.0834e+00
  VMC Evar = 1.6638e-01
  Total weights = 9.998839370e+03
Energy Average: -2.083422996e+00
Energy Variance: 1.661953241e-01
Weight Total: 2.000000000e+04
VGS Total: 1.999767874e+04
Energy Standard Deviation: 4.076706073e-01
Energy Standard Error: 4.076706073e-03
Target Function Average: 1.532960635e-01
Norm of Gradient Vector: 2.321494983e+00
After engine_checkConfig
  Execution time = 8.6893e-02
  </log>
</opt>
<opt stage="main" walkers="10000">
  <log>
Value of descent_num: 99
Number of Parameters: 31
Descent Number: 99
Finalization Descent Num (should be zero if not on last section): 0
Parameter Type step sizes:  TJF_2Body_eta=1.0000e-03 TJF_1Body_eta=1.0000e-033Body_eta1.0000e-04 F_eta=1.0000e-03 CI_eta=1.0000e-03 Orb_eta=1.0000e-03
Using ADAM
  Execution time = 2.9208e-01
  </log>
  <optVariables href="H4-descent.s099.opt.xml">
CSFcoeff_1 -4.257245e-01                3 1 ON  0
uu_0       5.754723e-01                 1 1 ON  1
uu_1       3.885624e-01                 1 1 ON  2
uu_2       2.759156e-01                 1 1 ON  3
uu_3       1.362788e-01                 1 1 ON  4
uu_4       1.657025e-02                 1 1 ON  5
uu_5       -3.201828e-02                1 1 ON  6
uu_6       -4.930300e-02                1 1 ON  7
uu_7       -2.825867e-02                1 1 ON  8
uu_8       -4.664825e-03                1 1 ON  9
uu_9       4.605934e-03                 1 1 ON  10
ud_0       9.059056e-01                 1 1 ON  11
ud_1       5.689597e-01                 1 1 ON  12
ud_2       3.570059e-01                 1 1 ON  13
ud_3       2.087931e-01                 1 1 ON  14
ud_4       1.024401e-01                 1 1 ON  15
ud_5       4.275788e-02                 1 1 ON  16
ud_6       2.363583e-02                 1 1 ON  17
ud_7       4.489907e-02                 1 1 ON  18
ud_8       6.571853e-02                 1 1 ON  19
ud_9       3.557064e-02                 1 1 ON  20
eH_0       4.349388e-02                 1 1 ON  21
eH_1       3.101135e-02                 1 1 ON  22
eH_2       -1.110468e-01                1 1 ON  23
eH_3       -8.883281e-02                1 1 ON  24
eH_4       -1.150148e-01                1 1 ON  25
eH_5       -7.918128e-02                1 1 ON  26
eH_6       -2.431465e-02                1 1 ON  27
eH_7       6.636054e-03                 1 1 ON  28
eH_8       2.907865e-02                 1 1 ON  29
eH_9       2.000314e-02                 1 1 ON  30
  </optVariables>
eH
Array
ud
Array
uu
Array
   Restore the number of walkers to 1, removing 0 walkers.
</opt>
</optimization-report>
  QMC Execution time = 2.9231e-01 secs
  Total Execution time = 2.9445e+01 secs

=========================================================
  A new xml input file : H4-descent.s099.cont.xml
