Rank =    0  Free Memory =  2827 MB
  Input file(s): optm-descent.xml 

=====================================================
                    QMCPACK 3.7.9

       (c) Copyright 2003-  QMCPACK developers

                    Please cite:
 J. Kim et al. J. Phys. Cond. Mat. 30 195901 (2018)
      https://doi.org/10.1088/1361-648X/aab9c3

  Git branch: gvp
  Last git commit: f13eaba26d553d060e4d37a84a67d74cf1e6c0d8-dirty
  Last git commit date: Wed Aug 18 14:32:28 2021 -0700
  Last git commit subject: off by one bug fixed, temporary Jastrow fix
=====================================================
  Global options 

  Total number of MPI ranks = 1
  Number of MPI groups      = 1
  MPI group ID              = 0
  Number of ranks in group  = 1
  MPI ranks per node        = 1
  OMP 1st level threads     = 1
  OMP nested threading disabled or only 1 thread on the 2nd level

  Precision used in this calculation, see definitions in the manual:
  Base precision      = double
  Full precision      = double

  Structure-of-arrays (SoA) optimization enabled

  Input XML = optm-descent.xml

  Project = H4-descent
  date    = 2021-08-18 15:43:44 PDT
  host    = connie-Thelio

 Random Number
 -------------
  Offset for the random number seeds from input file (mod 1024): 651

  Range of prime numbers to use as seeds over processors and threads = 4877-4889


 Particle Set 
 ------------
  Name: e
  All the species have the same mass 1
  Particle set size: 4

 Particle Set 
 ------------
  Name: ion0
  All the species have the same mass 1
  Particle set size: 4

 Wavefunction setup: 
 ------------------- 
  Name: psi0
  Created SPOSet builder named 'LCAOBSet' of type molecularorbital
  LCAO: SoaAtomicBasisSet<MultiQuintic,0>
  AO BasisSet for H
   Angular momentum expanded in cartesian functions x^lx y^ly z^lz according to Gamess
Using log grid with default values: ri = 1e-06 rf = 100 npts = 1001
   R(n,l,m,s) 0 0 0 0
Expanding Ylm (angular function) according to Gamess using cartesian gaussians
Adding 1 cartesian gaussian orbitals for l= 0
  Setting cutoff radius 8.62979

   Maximum Angular Momentum  = 0
   Number of Radial functors = 1
   Basis size                = 1

Creating SPOSet in SlaterDetBuilder::put(xmlNodePtr cur).
spo_name = spo-up
  Building SPOSet 'spo-up' with 'LCAOBSet' basis set.
Creating SPOSet in SlaterDetBuilder::put(xmlNodePtr cur).
spo_name = spo-dn
  Building SPOSet 'spo-dn' with 'LCAOBSet' basis set.
Using Bryan's algorithm for MultiSlaterDeterminant expansion. 
Creating base determinant (up) for MSD expansion. 
Creating base determinant (down) for MSD expansion. 
Found determinant list. 
Reading CSFs.
Found 2 terms in the MSD expansion.
Norm of ci vector (sum of ci^2): 0.638005
Norm of qchem ci vector (sum of qchem_ci^2): 0.990143
Found 2 unique up determinants.
Found 2 unique down determinants.
Number of terms in pairs array: 1
Number of terms in pairs array: 1
CI coefficients are optimizable. 
  FermionWF = MultiSlaterDeterminantFast

   Jastrow
   -------
    Name: J2   Type: Two-Body   Function: Bspline

    Radial function for species: u - u
     Number of parameters: 10
     Cusp: -0.25
     Cutoff radius: 10

     Name                        Value Type Recompute Use Index
     ---- ---------------------------- ---- --------- --- -----
     uu_0                 5.680176e-01    1         1  ON     0
     uu_1                 3.699138e-01    1         1  ON     1
     uu_2                 2.108829e-01    1         1  ON     2
     uu_3                 9.267632e-02    1         1  ON     3
     uu_4                 5.276940e-03    1         1  ON     4
     uu_5                -3.330962e-02    1         1  ON     5
     uu_6                -2.484192e-02    1         1  ON     6
     uu_7                 8.603361e-03    1         1  ON     7
     uu_8                 3.763565e-02    1         1  ON     8
     uu_9                 2.979626e-02    1         1  ON     9

    Radial function for species: u - d
     Number of parameters: 10
     Cusp: -5.000000e-01
     Cutoff radius: 1.000000e+01

     Name                        Value Type Recompute Use Index
     ---- ---------------------------- ---- --------- --- -----
     ud_0                 9.168016e-01    1         1  ON     0
     ud_1                 5.756625e-01    1         1  ON     1
     ud_2                 3.465443e-01    1         1  ON     2
     ud_3                 1.896617e-01    1         1  ON     3
     ud_4                 8.747532e-02    1         1  ON     4
     ud_5                 3.482162e-02    1         1  ON     5
     ud_6                 3.708930e-02    1         1  ON     6
     ud_7                 6.355172e-02    1         1  ON     7
     ud_8                 7.720516e-02    1         1  ON     8
     ud_9                 5.828843e-02    1         1  ON     9


   Jastrow
   -------
    Name: J1   Type: One-Body   Function: Bspline

    Radial function for element: H
     Number of parameters: 10
     Cusp: 1.000000e+00
     Cutoff radius: 5.000000e+00

     Name                        Value Type Recompute Use Index
     ---- ---------------------------- ---- --------- --- -----
     eH_0                 1.539994e-02    1         1  ON     0
     eH_1                 2.935596e-02    1         1  ON     1
     eH_2                -1.133046e-01    1         1  ON     2
     eH_3                -9.452275e-02    1         1  ON     3
     eH_4                -1.063167e-01    1         1  ON     4
     eH_5                -7.820047e-02    1         1  ON     5
     eH_6                -3.640043e-02    1         1  ON     6
     eH_7                -6.827574e-03    1         1  ON     7
     eH_8                 8.345458e-03    1         1  ON     8
     eH_9                 4.849582e-03    1         1  ON     9

  QMCHamiltonian::addOperator Kinetic to H, physical Hamiltonian 
  QMCHamiltonian::addOperator ElecElec to H, physical Hamiltonian 
QMCHamiltonian::addOperatorType added type coulomb named ElecElec
  QMCHamiltonian::addOperator IonElec to H, physical Hamiltonian 
QMCHamiltonian::addOperatorType added type coulomb named IonElec
  QMCHamiltonian::addOperator IonIon to H, physical Hamiltonian 
QMCHamiltonian::addOperatorType added type coulomb named IonIon

  QMCHamiltonian::add2WalkerProperty added
    4 to P::PropertyList 
    0 to P::Collectables 
    starting Index of the observables in P::PropertyList = 10
ParticleSetPool::randomize 
  Initialization Execution time = 4.9209e-03 secs
=========================================================
 Summary of QMC systems 
=========================================================
ParticleSetPool has: 

  ParticleSet 'e' contains 4 particles :  u(2) d(2)

    u  1.0958951042e+00  5.1427708436e-01 -1.4428370103e+00
    u  6.0611124208e-01 -1.7216487456e-01 -7.7962973208e-01
    d -6.4575975825e-01  9.9108864642e-01  1.8564835946e-01
    d -7.5318592612e-02  2.7134132518e-01 -1.1765509155e+00

  Distance table for dissimilar particles (A-B):
    source: ion0  target: e
    Using structure-of-arrays (SoA) data layout
    Distance computations use open boundary conditions in 3D.

  Distance table for similar particles (A-A):
    source/target: e
    Using structure-of-arrays (SoA) data layout
    Distance computations use open boundary conditions in 3D.


  ParticleSet 'ion0' contains 4 particles :  H(4)

    H  0.0000000000e+00  0.0000000000e+00  0.0000000000e+00
    H  1.8897259877e+00  0.0000000000e+00  0.0000000000e+00
    H  0.0000000000e+00  0.0000000000e+00  2.8345889816e+00
    H  0.0000000000e+00  0.0000000000e+00  5.6691779632e+00

  Distance table for similar particles (A-A):
    source/target: ion0
    Using structure-of-arrays (SoA) data layout
    Distance computations use open boundary conditions in 3D.


  Hamiltonian h0
  Kinetic         Kinetic energy
  ElecElec        CoulombAB source=e

  IonElec         CoulombAA source/target ion0

  IonIon          CoulombAA source/target ion0


Loop execution max-interations = 100
Inside LM engine constructor, num_params is: 0 and _total_num_params is: 0

=========================================================
  Start QMCFixedSampleLinearOptimize
  File Root H4-descent.s000 append = no 
=========================================================
  Skip QMCDriver::putQMCInfo 
  Resetting Properties of the walkers 1 x 14
Omega from input file: 0.0000000000e+00
Current collection step: -1
Target: generalized variational principle
Omega from input file: 0.0000000000e+00
Current collection step: -1
Target: generalized variational principle
  Adding 1 walkers to 0 existing sets
  Total number of walkers: 1.0000000000e+00
  Total weight: 1.0000000000e+00

=========================================================
  Start VMC
  File Root H4-descent.s000 append = no 
=========================================================
Resetting walkers
  Using the current 1 walkers.
  Total number of walkers: 1.0000000000e+00
  Total weight: 1.0000000000e+00
  Resetting Properties of the walkers 1 x 14

<vmc function="put">
  qmc_counter=0  my_counter=0
  time step      = 5.0000000000e-02
  blocks         = 200
  steps          = 50
  substeps       = 1
  current        = 0
  target samples = 1.0000000000e+04
  walkers/mpi    = 1

  stepsbetweensamples = 1
<parameter name="blocks" condition="int">200</parameter>
<parameter name="blocks_between_recompute" condition="int">0</parameter>
<parameter name="check_properties" condition="int">100</parameter>
<parameter name="checkproperties" condition="int">100</parameter>
<parameter name="current" condition="int">0</parameter>
<parameter name="dmcwalkersperthread" condition="real">1.0000000000e+04</parameter>
<parameter name="fermionicweight" condition="real">1.0000000000e-04</parameter>
<parameter name="jastrowweight" condition="real">0.0000000000e+00</parameter>
<parameter name="maxcpusecs" condition="real">3.6000000000e+05</parameter>
<parameter name="mg_beta" condition="real">0.0000000000e+00</parameter>
<parameter name="mg_gamma" condition="real">0.0000000000e+00</parameter>
<parameter name="modifiedguiding" condition="string">ParameterDerivativeAdjusted</parameter>
<parameter name="orboptweight" condition="real">0.0000000000e+00</parameter>
<parameter name="record_configs" condition="int">0</parameter>
<parameter name="record_walkers" condition="int">1</parameter>
<parameter name="recordconfigs" condition="int">0</parameter>
<parameter name="recordwalkers" condition="int">1</parameter>
<parameter name="rewind" condition="int">0</parameter>
<parameter name="samples" condition="real">1.0000000000e+04</parameter>
<parameter name="samplesperthread" condition="real">1.0000000000e+04</parameter>
<parameter name="steps" condition="int">50</parameter>
<parameter name="stepsbetweensamples" condition="int">1</parameter>
<parameter name="store_configs" condition="int">0</parameter>
<parameter name="storeconfigs" condition="int">0</parameter>
<parameter name="sub_steps" condition="int">1</parameter>
<parameter name="substeps" condition="int">1</parameter>
<parameter name="tau" condition="au">5.0000000000e-02</parameter>
<parameter name="time_step" condition="au">5.0000000000e-02</parameter>
<parameter name="timestep" condition="au">5.0000000000e-02</parameter>
<parameter name="use_drift" condition="string">no</parameter>
<parameter name="usedrift" condition="string">no</parameter>
<parameter name="walkers" condition="int">1</parameter>
<parameter name="warmup_steps" condition="int">1000</parameter>
<parameter name="warmupsteps" condition="int">1000</parameter>
  DumpConfig==false Nothing (configurations, state) will be saved.
  Walker Samples are dumped every 1 steps.
</vmc>
  Set drift_modifier UNR parameter a = 1.0000000000e+00
  EstimatorManagerBase::add replace LocalEnergy estimator.
 Using QMCCostFunction::QMCCostFunction
 Using Default Cost Function: Cost = <|E-E_ff|^2>
  Set drift_modifier UNR parameter a = 1.0000000000e+00
  EstimatorManagerBase::add replace LocalEnergy estimator.
entering engine_start function
<optimization-report>
<vmc stage="main" blocks="200">
  Initial partition of walkers 0 1 
Using ParameterDeriv Adjusted Guiding Function

  Using Particle by Particle moves
  Walker moves without drift
  Total Sample Size   =10000
  Walker distribution on root = 0 1 
  Anonymous Buffer size per walker : 1704 Bytes.
MEMORY increase 0 MB VMC::resetRun
====================================================
  SimpleFixedNodeBranch::finalize after a VMC block
    QMC counter        = 0
    time step          = 0.05
    reference energy   = -2.15273
    reference variance = 1.01631e-17
====================================================
  Execution time = 2.0495e-01
</vmc>
<opt stage="setup">
  <log>
     Reading configurations from h5FileRoot H4-descent.s000
  QMCCostFunction is created with 1 threads.
  Using Nonlocal PP in Opt: no
   Number of samples loaded to each thread : 10000 
Value of Filter Bool: false before_first_block_sample: true onDescentStep: true
Before engine_checkConfigurations
Double check filter inside engine_checkConfig: false
 w_tot 9.9961e+03
  VMC Eavg = -1.8588e+00
  VMC Evar = 3.6463e-01
  Total weights = 9.996080421e+03
Energy Average: -1.858785948e+00
Energy Variance: 3.641583654e-01
Weight Total: 2.000000000e+04
VGS Total: 1.999216084e+04
Energy Standard Deviation: 6.034553550e-01
Energy Standard Error: 6.034553550e-03
Target Function Average: 5.605844412e-01
Norm of Gradient Vector: 7.846500831e+00
After engine_checkConfig
  Execution time = 8.9127e-02
  </log>
</opt>
<opt stage="main" walkers="10000">
  <log>
Value of descent_num: 0
Should only happen on first descent step
This is num_params_: 31
Number of Parameters: 31
Descent Number: 0
Finalization Descent Num (should be zero if not on last section): 0
Parameter Type step sizes:  TJF_2Body_eta=1.0000e-03 TJF_1Body_eta=1.0000e-033Body_eta1.0000e-04 F_eta=1.0000e-03 CI_eta=1.0000e-03 Orb_eta=1.0000e-03
Using AMSGrad
  Execution time = 2.9411e-01
  </log>
  <optVariables href="H4-descent.s000.opt.xml">
CSFcoeff_1 -5.195664e-01                3 1 ON  0
uu_0       5.690176e-01                 1 1 ON  1
uu_1       3.709138e-01                 1 1 ON  2
uu_2       2.118829e-01                 1 1 ON  3
uu_3       9.367632e-02                 1 1 ON  4
uu_4       4.276948e-03                 1 1 ON  5
uu_5       -3.430962e-02                1 1 ON  6
uu_6       -2.384193e-02                1 1 ON  7
uu_7       7.603363e-03                 1 1 ON  8
uu_8       3.663565e-02                 1 1 ON  9
uu_9       2.879627e-02                 1 1 ON  10
ud_0       9.178016e-01                 1 1 ON  11
ud_1       5.766625e-01                 1 1 ON  12
ud_2       3.455443e-01                 1 1 ON  13
ud_3       1.906617e-01                 1 1 ON  14
ud_4       8.847532e-02                 1 1 ON  15
ud_5       3.382162e-02                 1 1 ON  16
ud_6       3.608930e-02                 1 1 ON  17
ud_7       6.255172e-02                 1 1 ON  18
ud_8       7.620517e-02                 1 1 ON  19
ud_9       5.728843e-02                 1 1 ON  20
eH_0       1.639994e-02                 1 1 ON  21
eH_1       2.835596e-02                 1 1 ON  22
eH_2       -1.123046e-01                1 1 ON  23
eH_3       -9.552275e-02                1 1 ON  24
eH_4       -1.073167e-01                1 1 ON  25
eH_5       -7.920047e-02                1 1 ON  26
eH_6       -3.540044e-02                1 1 ON  27
eH_7       -5.827574e-03                1 1 ON  28
eH_8       9.345457e-03                 1 1 ON  29
eH_9       3.849587e-03                 1 1 ON  30
  </optVariables>
eH
Array
ud
Array
uu
Array
   Restore the number of walkers to 1, removing 0 walkers.
</opt>
</optimization-report>
  QMC Execution time = 2.9437e-01 secs
  Reusing QMCFixedSampleLinearOptimize
 Using QMCCostFunction::QMCCostFunction
 Using Default Cost Function: Cost = <|E-E_ff|^2>

=========================================================
  Start QMCFixedSampleLinearOptimize
  File Root H4-descent.s001 append = no 
=========================================================
  Skip QMCDriver::putQMCInfo 
  Resetting Properties of the walkers 1 x 14
Omega from input file: 0.0000e+00
Current collection step: -1
Target: generalized variational principle

=========================================================
  Start VMC
  File Root H4-descent.s001 append = no 
=========================================================
Using existing walkers 
  Resetting Properties of the walkers 1 x 14

<vmc function="put">
  qmc_counter=1  my_counter=0
  time step      = 5.0000e-02
  blocks         = 200
  steps          = 50
  substeps       = 1
  current        = 0
  target samples = 1.0000e+04
  walkers/mpi    = 1

  stepsbetweensamples = 1
<parameter name="blocks" condition="int">200</parameter>
<parameter name="blocks_between_recompute" condition="int">0</parameter>
<parameter name="check_properties" condition="int">100</parameter>
<parameter name="checkproperties" condition="int">100</parameter>
<parameter name="current" condition="int">0</parameter>
<parameter name="dmcwalkersperthread" condition="real">1.0000e+04</parameter>
<parameter name="fermionicweight" condition="real">1.0000e-04</parameter>
<parameter name="jastrowweight" condition="real">0.0000e+00</parameter>
<parameter name="maxcpusecs" condition="real">3.6000e+05</parameter>
<parameter name="mg_beta" condition="real">0.0000e+00</parameter>
<parameter name="mg_gamma" condition="real">0.0000e+00</parameter>
<parameter name="modifiedguiding" condition="string">ParameterDerivativeAdjusted</parameter>
<parameter name="orboptweight" condition="real">0.0000e+00</parameter>
<parameter name="record_configs" condition="int">0</parameter>
<parameter name="record_walkers" condition="int">1</parameter>
<parameter name="recordconfigs" condition="int">0</parameter>
<parameter name="recordwalkers" condition="int">1</parameter>
<parameter name="rewind" condition="int">0</parameter>
<parameter name="samples" condition="real">1.0000e+04</parameter>
<parameter name="samplesperthread" condition="real">1.0000e+04</parameter>
<parameter name="steps" condition="int">50</parameter>
<parameter name="stepsbetweensamples" condition="int">1</parameter>
<parameter name="store_configs" condition="int">0</parameter>
<parameter name="storeconfigs" condition="int">0</parameter>
<parameter name="sub_steps" condition="int">1</parameter>
<parameter name="substeps" condition="int">1</parameter>
<parameter name="tau" condition="au">5.0000e-02</parameter>
<parameter name="time_step" condition="au">5.0000e-02</parameter>
<parameter name="timestep" condition="au">5.0000e-02</parameter>
<parameter name="use_drift" condition="string">no</parameter>
<parameter name="usedrift" condition="string">no</parameter>
<parameter name="walkers" condition="int">1</parameter>
<parameter name="warmup_steps" condition="int">1000</parameter>
<parameter name="warmupsteps" condition="int">1000</parameter>
  DumpConfig==false Nothing (configurations, state) will be saved.
  Walker Samples are dumped every 1 steps.
</vmc>
    Restarting, cummulative properties:
      energy     = -2.1527e+00
      variance   = 0.0000e+00
      r2accepted = 1.0000e-10
      r2proposed = 1.0000e-10
  Set drift_modifier UNR parameter a = 1.0000e+00
  EstimatorManagerBase::add replace LocalEnergy estimator.
 Using QMCCostFunction::QMCCostFunction
 Using Default Cost Function: Cost = <|E-E_ff|^2>
  Set drift_modifier UNR parameter a = 1.0000e+00
  EstimatorManagerBase::add replace LocalEnergy estimator.
  EstimatorManagerBase::add replace LocalEnergy estimator.
entering engine_start function
<optimization-report>
<vmc stage="main" blocks="200">
  Cannot make clones again. Use existing 1 clones
  Initial partition of walkers 0 1 
Using ParameterDeriv Adjusted Guiding Function

  Using Particle by Particle moves
  Walker moves without drift
  Total Sample Size   =10000
  Walker distribution on root = 0 1 
  Anonymous Buffer size per walker : 1704 Bytes.
MEMORY increase 0 MB VMC::resetRun
====================================================
  SimpleFixedNodeBranch::finalize after a VMC block
    QMC counter        = 1
    time step          = 0.05
    reference energy   = -2.25976
    reference variance = 6.66328e-16
====================================================
  Execution time = 2.0751e-01
</vmc>
<opt stage="setup">
  <log>
     Reading configurations from h5FileRoot H4-descent.s001
  QMCCostFunction is created with 1 threads.
  Using Nonlocal PP in Opt: no
   Number of samples loaded to each thread : 10000 
Value of Filter Bool: false before_first_block_sample: true onDescentStep: true
Before engine_checkConfigurations
Double check filter inside engine_checkConfig: false
 w_tot 9.9981e+03
  VMC Eavg = -2.0379e+00
  VMC Evar = 2.6166e-01
  Total weights = 9.998097251e+03
Energy Average: -2.037901508e+00
Energy Variance: 2.607638099e-01
Weight Total: 2.000000000e+04
VGS Total: 1.999619450e+04
Energy Standard Deviation: 5.106503793e-01
Energy Standard Error: 5.106503793e-03
Target Function Average: 3.173011564e-01
Norm of Gradient Vector: 4.448935010e+00
After engine_checkConfig
  Execution time = 8.7114e-02
  </log>
</opt>
<opt stage="main" walkers="10000">
  <log>
Value of descent_num: 1
Number of Parameters: 31
Descent Number: 1
Finalization Descent Num (should be zero if not on last section): 0
Parameter Type step sizes:  TJF_2Body_eta=1.0000e-03 TJF_1Body_eta=1.0000e-033Body_eta1.0000e-04 F_eta=1.0000e-03 CI_eta=1.0000e-03 Orb_eta=1.0000e-03
Using AMSGrad
  Execution time = 2.9465e-01
  </log>
  <optVariables href="H4-descent.s001.opt.xml">
CSFcoeff_1 -5.182442e-01                3 1 ON  0
uu_0       5.691839e-01                 1 1 ON  1
uu_1       3.719874e-01                 1 1 ON  2
uu_2       2.130558e-01                 1 1 ON  3
uu_3       9.488305e-02                 1 1 ON  4
uu_4       4.570496e-03                 1 1 ON  5
uu_5       -3.522215e-02                1 1 ON  6
uu_6       -2.456805e-02                1 1 ON  7
uu_7       6.686161e-03                 1 1 ON  8
uu_8       3.538921e-02                 1 1 ON  9
uu_9       2.746937e-02                 1 1 ON  10
ud_0       9.191488e-01                 1 1 ON  11
ud_1       5.778438e-01                 1 1 ON  12
ud_2       3.442000e-01                 1 1 ON  13
ud_3       1.903123e-01                 1 1 ON  14
ud_4       8.971481e-02                 1 1 ON  15
ud_5       3.323165e-02                 1 1 ON  16
ud_6       3.482043e-02                 1 1 ON  17
ud_7       6.217468e-02                 1 1 ON  18
ud_8       7.635870e-02                 1 1 ON  19
ud_9       5.597486e-02                 1 1 ON  20
eH_0       1.753607e-02                 1 1 ON  21
eH_1       2.895475e-02                 1 1 ON  22
eH_2       -1.114042e-01                1 1 ON  23
eH_3       -9.615324e-02                1 1 ON  24
eH_4       -1.080005e-01                1 1 ON  25
eH_5       -8.049491e-02                1 1 ON  26
eH_6       -3.435592e-02                1 1 ON  27
eH_7       -4.626075e-03                1 1 ON  28
eH_8       1.069347e-02                 1 1 ON  29
eH_9       2.597207e-03                 1 1 ON  30
  </optVariables>
eH
Array
ud
Array
uu
Array
   Restore the number of walkers to 1, removing 0 walkers.
</opt>
</optimization-report>
  QMC Execution time = 2.9489e-01 secs
  Reusing QMCFixedSampleLinearOptimize
 Using QMCCostFunction::QMCCostFunction
 Using Default Cost Function: Cost = <|E-E_ff|^2>

=========================================================
  Start QMCFixedSampleLinearOptimize
  File Root H4-descent.s002 append = no 
=========================================================
  Skip QMCDriver::putQMCInfo 
  Resetting Properties of the walkers 1 x 14
Omega from input file: 0.0000e+00
Current collection step: -1
Target: generalized variational principle

=========================================================
  Start VMC
  File Root H4-descent.s002 append = no 
=========================================================
Using existing walkers 
  Resetting Properties of the walkers 1 x 14

<vmc function="put">
  qmc_counter=2  my_counter=0
  time step      = 5.0000e-02
  blocks         = 200
  steps          = 50
  substeps       = 1
  current        = 0
  target samples = 1.0000e+04
  walkers/mpi    = 1

  stepsbetweensamples = 1
<parameter name="blocks" condition="int">200</parameter>
<parameter name="blocks_between_recompute" condition="int">0</parameter>
<parameter name="check_properties" condition="int">100</parameter>
<parameter name="checkproperties" condition="int">100</parameter>
<parameter name="current" condition="int">0</parameter>
<parameter name="dmcwalkersperthread" condition="real">1.0000e+04</parameter>
<parameter name="fermionicweight" condition="real">1.0000e-04</parameter>
<parameter name="jastrowweight" condition="real">0.0000e+00</parameter>
<parameter name="maxcpusecs" condition="real">3.6000e+05</parameter>
<parameter name="mg_beta" condition="real">0.0000e+00</parameter>
<parameter name="mg_gamma" condition="real">0.0000e+00</parameter>
<parameter name="modifiedguiding" condition="string">ParameterDerivativeAdjusted</parameter>
<parameter name="orboptweight" condition="real">0.0000e+00</parameter>
<parameter name="record_configs" condition="int">0</parameter>
<parameter name="record_walkers" condition="int">1</parameter>
<parameter name="recordconfigs" condition="int">0</parameter>
<parameter name="recordwalkers" condition="int">1</parameter>
<parameter name="rewind" condition="int">0</parameter>
<parameter name="samples" condition="real">1.0000e+04</parameter>
<parameter name="samplesperthread" condition="real">1.0000e+04</parameter>
<parameter name="steps" condition="int">50</parameter>
<parameter name="stepsbetweensamples" condition="int">1</parameter>
<parameter name="store_configs" condition="int">0</parameter>
<parameter name="storeconfigs" condition="int">0</parameter>
<parameter name="sub_steps" condition="int">1</parameter>
<parameter name="substeps" condition="int">1</parameter>
<parameter name="tau" condition="au">5.0000e-02</parameter>
<parameter name="time_step" condition="au">5.0000e-02</parameter>
<parameter name="timestep" condition="au">5.0000e-02</parameter>
<parameter name="use_drift" condition="string">no</parameter>
<parameter name="usedrift" condition="string">no</parameter>
<parameter name="walkers" condition="int">1</parameter>
<parameter name="warmup_steps" condition="int">1000</parameter>
<parameter name="warmupsteps" condition="int">1000</parameter>
  DumpConfig==false Nothing (configurations, state) will be saved.
  Walker Samples are dumped every 1 steps.
</vmc>
    Restarting, cummulative properties:
      energy     = -2.2062e+00
      variance   = 0.0000e+00
      r2accepted = 1.0000e-10
      r2proposed = 1.0000e-10
  Set drift_modifier UNR parameter a = 1.0000e+00
  EstimatorManagerBase::add replace LocalEnergy estimator.
 Using QMCCostFunction::QMCCostFunction
 Using Default Cost Function: Cost = <|E-E_ff|^2>
  Set drift_modifier UNR parameter a = 1.0000e+00
  EstimatorManagerBase::add replace LocalEnergy estimator.
  EstimatorManagerBase::add replace LocalEnergy estimator.
entering engine_start function
<optimization-report>
<vmc stage="main" blocks="200">
  Cannot make clones again. Use existing 1 clones
  Initial partition of walkers 0 1 
Using ParameterDeriv Adjusted Guiding Function

  Using Particle by Particle moves
  Walker moves without drift
  Total Sample Size   =10000
  Walker distribution on root = 0 1 
  Anonymous Buffer size per walker : 1704 Bytes.
MEMORY increase 0 MB VMC::resetRun
====================================================
  SimpleFixedNodeBranch::finalize after a VMC block
    QMC counter        = 2
    time step          = 0.05
    reference energy   = -2.25954
    reference variance = -5.84084e-16
====================================================
  Execution time = 2.0569e-01
</vmc>
<opt stage="setup">
  <log>
     Reading configurations from h5FileRoot H4-descent.s002
  QMCCostFunction is created with 1 threads.
  Using Nonlocal PP in Opt: no
   Number of samples loaded to each thread : 10000 
Value of Filter Bool: false before_first_block_sample: true onDescentStep: true
Before engine_checkConfigurations
Double check filter inside engine_checkConfig: false
 w_tot 9.9992e+03
  VMC Eavg = -2.0362e+00
  VMC Evar = 1.4440e-01
  Total weights = 9.999230076e+03
Energy Average: -2.036175662e+00
Energy Variance: 1.444068659e-01
Weight Total: 2.000000000e+04
VGS Total: 1.999846015e+04
Energy Standard Deviation: 3.800090339e-01
Energy Standard Error: 3.800090339e-03
Target Function Average: 1.374512993e-01
Norm of Gradient Vector: 2.011003164e+00
After engine_checkConfig
  Execution time = 8.5170e-02
  </log>
</opt>
<opt stage="main" walkers="10000">
  <log>
Value of descent_num: 2
Number of Parameters: 31
Descent Number: 2
Finalization Descent Num (should be zero if not on last section): 0
Parameter Type step sizes:  TJF_2Body_eta=1.0000e-03 TJF_1Body_eta=1.0000e-033Body_eta1.0000e-04 F_eta=1.0000e-03 CI_eta=1.0000e-03 Orb_eta=1.0000e-03
Using AMSGrad
  Execution time = 2.9089e-01
  </log>
  <optVariables href="H4-descent.s002.opt.xml">
CSFcoeff_1 -5.167517e-01                3 1 ON  0
uu_0       5.692485e-01                 1 1 ON  1
uu_1       3.727036e-01                 1 1 ON  2
uu_2       2.134456e-01                 1 1 ON  3
uu_3       9.623805e-02                 1 1 ON  4
uu_4       4.482715e-03                 1 1 ON  5
uu_5       -3.616891e-02                1 1 ON  6
uu_6       -2.530828e-02                1 1 ON  7
uu_7       6.974074e-03                 1 1 ON  8
uu_8       3.393265e-02                 1 1 ON  9
uu_9       2.613237e-02                 1 1 ON  10
ud_0       9.200575e-01                 1 1 ON  11
ud_1       5.787019e-01                 1 1 ON  12
ud_2       3.427185e-01                 1 1 ON  13
ud_3       1.903035e-01                 1 1 ON  14
ud_4       9.087438e-02                 1 1 ON  15
ud_5       3.361930e-02                 1 1 ON  16
ud_6       3.354267e-02                 1 1 ON  17
ud_7       6.210062e-02                 1 1 ON  18
ud_8       7.692827e-02                 1 1 ON  19
ud_9       5.442420e-02                 1 1 ON  20
eH_0       1.888114e-02                 1 1 ON  21
eH_1       2.944701e-02                 1 1 ON  22
eH_2       -1.108626e-01                1 1 ON  23
eH_3       -9.613061e-02                1 1 ON  24
eH_4       -1.090882e-01                1 1 ON  25
eH_5       -8.178064e-02                1 1 ON  26
eH_6       -3.299496e-02                1 1 ON  27
eH_7       -3.855780e-03                1 1 ON  28
eH_8       1.224301e-02                 1 1 ON  29
eH_9       2.952069e-03                 1 1 ON  30
  </optVariables>
eH
Array
ud
Array
uu
Array
   Restore the number of walkers to 1, removing 0 walkers.
</opt>
</optimization-report>
  QMC Execution time = 2.9113e-01 secs
  Reusing QMCFixedSampleLinearOptimize
 Using QMCCostFunction::QMCCostFunction
 Using Default Cost Function: Cost = <|E-E_ff|^2>

=========================================================
  Start QMCFixedSampleLinearOptimize
  File Root H4-descent.s003 append = no 
=========================================================
  Skip QMCDriver::putQMCInfo 
  Resetting Properties of the walkers 1 x 14
Omega from input file: 0.0000e+00
Current collection step: -1
Target: generalized variational principle

=========================================================
  Start VMC
  File Root H4-descent.s003 append = no 
=========================================================
Using existing walkers 
  Resetting Properties of the walkers 1 x 14

<vmc function="put">
  qmc_counter=3  my_counter=0
  time step      = 5.0000e-02
  blocks         = 200
  steps          = 50
  substeps       = 1
  current        = 0
  target samples = 1.0000e+04
  walkers/mpi    = 1

  stepsbetweensamples = 1
<parameter name="blocks" condition="int">200</parameter>
<parameter name="blocks_between_recompute" condition="int">0</parameter>
<parameter name="check_properties" condition="int">100</parameter>
<parameter name="checkproperties" condition="int">100</parameter>
<parameter name="current" condition="int">0</parameter>
<parameter name="dmcwalkersperthread" condition="real">1.0000e+04</parameter>
<parameter name="fermionicweight" condition="real">1.0000e-04</parameter>
<parameter name="jastrowweight" condition="real">0.0000e+00</parameter>
<parameter name="maxcpusecs" condition="real">3.6000e+05</parameter>
<parameter name="mg_beta" condition="real">0.0000e+00</parameter>
<parameter name="mg_gamma" condition="real">0.0000e+00</parameter>
<parameter name="modifiedguiding" condition="string">ParameterDerivativeAdjusted</parameter>
<parameter name="orboptweight" condition="real">0.0000e+00</parameter>
<parameter name="record_configs" condition="int">0</parameter>
<parameter name="record_walkers" condition="int">1</parameter>
<parameter name="recordconfigs" condition="int">0</parameter>
<parameter name="recordwalkers" condition="int">1</parameter>
<parameter name="rewind" condition="int">0</parameter>
<parameter name="samples" condition="real">1.0000e+04</parameter>
<parameter name="samplesperthread" condition="real">1.0000e+04</parameter>
<parameter name="steps" condition="int">50</parameter>
<parameter name="stepsbetweensamples" condition="int">1</parameter>
<parameter name="store_configs" condition="int">0</parameter>
<parameter name="storeconfigs" condition="int">0</parameter>
<parameter name="sub_steps" condition="int">1</parameter>
<parameter name="substeps" condition="int">1</parameter>
<parameter name="tau" condition="au">5.0000e-02</parameter>
<parameter name="time_step" condition="au">5.0000e-02</parameter>
<parameter name="timestep" condition="au">5.0000e-02</parameter>
<parameter name="use_drift" condition="string">no</parameter>
<parameter name="usedrift" condition="string">no</parameter>
<parameter name="walkers" condition="int">1</parameter>
<parameter name="warmup_steps" condition="int">1000</parameter>
<parameter name="warmupsteps" condition="int">1000</parameter>
  DumpConfig==false Nothing (configurations, state) will be saved.
  Walker Samples are dumped every 1 steps.
</vmc>
    Restarting, cummulative properties:
      energy     = -2.2240e+00
      variance   = 0.0000e+00
      r2accepted = 1.0000e-10
      r2proposed = 1.0000e-10
  Set drift_modifier UNR parameter a = 1.0000e+00
  EstimatorManagerBase::add replace LocalEnergy estimator.
 Using QMCCostFunction::QMCCostFunction
 Using Default Cost Function: Cost = <|E-E_ff|^2>
  Set drift_modifier UNR parameter a = 1.0000e+00
  EstimatorManagerBase::add replace LocalEnergy estimator.
  EstimatorManagerBase::add replace LocalEnergy estimator.
entering engine_start function
<optimization-report>
<vmc stage="main" blocks="200">
  Cannot make clones again. Use existing 1 clones
  Initial partition of walkers 0 1 
Using ParameterDeriv Adjusted Guiding Function

  Using Particle by Particle moves
  Walker moves without drift
  Total Sample Size   =10000
  Walker distribution on root = 0 1 
  Anonymous Buffer size per walker : 1704 Bytes.
MEMORY increase 0 MB VMC::resetRun
====================================================
  SimpleFixedNodeBranch::finalize after a VMC block
    QMC counter        = 3
    time step          = 0.05
    reference energy   = -1.58357
    reference variance = -3.27498e-16
====================================================
  Execution time = 2.0557e-01
</vmc>
<opt stage="setup">
  <log>
     Reading configurations from h5FileRoot H4-descent.s003
  QMCCostFunction is created with 1 threads.
  Using Nonlocal PP in Opt: no
   Number of samples loaded to each thread : 10000 
Value of Filter Bool: false before_first_block_sample: true onDescentStep: true
Before engine_checkConfigurations
Double check filter inside engine_checkConfig: false
 w_tot 9.9989e+03
  VMC Eavg = -2.0676e+00
  VMC Evar = 1.6657e-01
  Total weights = 9.998890529e+03
Energy Average: -2.067636676e+00
Energy Variance: 1.665650624e-01
Weight Total: 2.000000000e+04
VGS Total: 1.999778106e+04
Energy Standard Deviation: 4.081238322e-01
Energy Standard Error: 4.081238322e-03
Target Function Average: 1.249281230e-01
Norm of Gradient Vector: 2.369328896e+00
After engine_checkConfig
  Execution time = 8.6539e-02
  </log>
</opt>
<opt stage="main" walkers="10000">
  <log>
Value of descent_num: 3
Number of Parameters: 31
Descent Number: 3
Finalization Descent Num (should be zero if not on last section): 0
Parameter Type step sizes:  TJF_2Body_eta=1.0000e-03 TJF_1Body_eta=1.0000e-033Body_eta1.0000e-04 F_eta=1.0000e-03 CI_eta=1.0000e-03 Orb_eta=1.0000e-03
Using AMSGrad
  Execution time = 2.9213e-01
  </log>
  <optVariables href="H4-descent.s003.opt.xml">
CSFcoeff_1 -5.151782e-01                3 1 ON  0
uu_0       5.697949e-01                 1 1 ON  1
uu_1       3.734429e-01                 1 1 ON  2
uu_2       2.142589e-01                 1 1 ON  3
uu_3       9.771321e-02                 1 1 ON  4
uu_4       5.084412e-03                 1 1 ON  5
uu_5       -3.745765e-02                1 1 ON  6
uu_6       -2.549434e-02                1 1 ON  7
uu_7       6.623407e-03                 1 1 ON  8
uu_8       3.238725e-02                 1 1 ON  9
uu_9       2.456987e-02                 1 1 ON  10
ud_0       9.204651e-01                 1 1 ON  11
ud_1       5.796596e-01                 1 1 ON  12
ud_2       3.414270e-01                 1 1 ON  13
ud_3       1.896455e-01                 1 1 ON  14
ud_4       9.176966e-02                 1 1 ON  15
ud_5       3.463312e-02                 1 1 ON  16
ud_6       3.278801e-02                 1 1 ON  17
ud_7       6.199973e-02                 1 1 ON  18
ud_8       7.667059e-02                 1 1 ON  19
ud_9       5.282266e-02                 1 1 ON  20
eH_0       1.985161e-02                 1 1 ON  21
eH_1       3.029309e-02                 1 1 ON  22
eH_2       -1.101664e-01                1 1 ON  23
eH_3       -9.580057e-02                1 1 ON  24
eH_4       -1.102027e-01                1 1 ON  25
eH_5       -8.306293e-02                1 1 ON  26
eH_6       -3.158266e-02                1 1 ON  27
eH_7       -2.859683e-03                1 1 ON  28
eH_8       1.197497e-02                 1 1 ON  29
eH_9       3.269130e-03                 1 1 ON  30
  </optVariables>
eH
Array
ud
Array
uu
Array
   Restore the number of walkers to 1, removing 0 walkers.
</opt>
</optimization-report>
  QMC Execution time = 2.9236e-01 secs
  Reusing QMCFixedSampleLinearOptimize
 Using QMCCostFunction::QMCCostFunction
 Using Default Cost Function: Cost = <|E-E_ff|^2>

=========================================================
  Start QMCFixedSampleLinearOptimize
  File Root H4-descent.s004 append = no 
=========================================================
  Skip QMCDriver::putQMCInfo 
  Resetting Properties of the walkers 1 x 14
Omega from input file: 0.0000e+00
Current collection step: -1
Target: generalized variational principle

=========================================================
  Start VMC
  File Root H4-descent.s004 append = no 
=========================================================
Using existing walkers 
  Resetting Properties of the walkers 1 x 14

<vmc function="put">
  qmc_counter=4  my_counter=0
  time step      = 5.0000e-02
  blocks         = 200
  steps          = 50
  substeps       = 1
  current        = 0
  target samples = 1.0000e+04
  walkers/mpi    = 1

  stepsbetweensamples = 1
<parameter name="blocks" condition="int">200</parameter>
<parameter name="blocks_between_recompute" condition="int">0</parameter>
<parameter name="check_properties" condition="int">100</parameter>
<parameter name="checkproperties" condition="int">100</parameter>
<parameter name="current" condition="int">0</parameter>
<parameter name="dmcwalkersperthread" condition="real">1.0000e+04</parameter>
<parameter name="fermionicweight" condition="real">1.0000e-04</parameter>
<parameter name="jastrowweight" condition="real">0.0000e+00</parameter>
<parameter name="maxcpusecs" condition="real">3.6000e+05</parameter>
<parameter name="mg_beta" condition="real">0.0000e+00</parameter>
<parameter name="mg_gamma" condition="real">0.0000e+00</parameter>
<parameter name="modifiedguiding" condition="string">ParameterDerivativeAdjusted</parameter>
<parameter name="orboptweight" condition="real">0.0000e+00</parameter>
<parameter name="record_configs" condition="int">0</parameter>
<parameter name="record_walkers" condition="int">1</parameter>
<parameter name="recordconfigs" condition="int">0</parameter>
<parameter name="recordwalkers" condition="int">1</parameter>
<parameter name="rewind" condition="int">0</parameter>
<parameter name="samples" condition="real">1.0000e+04</parameter>
<parameter name="samplesperthread" condition="real">1.0000e+04</parameter>
<parameter name="steps" condition="int">50</parameter>
<parameter name="stepsbetweensamples" condition="int">1</parameter>
<parameter name="store_configs" condition="int">0</parameter>
<parameter name="storeconfigs" condition="int">0</parameter>
<parameter name="sub_steps" condition="int">1</parameter>
<parameter name="substeps" condition="int">1</parameter>
<parameter name="tau" condition="au">5.0000e-02</parameter>
<parameter name="time_step" condition="au">5.0000e-02</parameter>
<parameter name="timestep" condition="au">5.0000e-02</parameter>
<parameter name="use_drift" condition="string">no</parameter>
<parameter name="usedrift" condition="string">no</parameter>
<parameter name="walkers" condition="int">1</parameter>
<parameter name="warmup_steps" condition="int">1000</parameter>
<parameter name="warmupsteps" condition="int">1000</parameter>
  DumpConfig==false Nothing (configurations, state) will be saved.
  Walker Samples are dumped every 1 steps.
</vmc>
    Restarting, cummulative properties:
      energy     = -2.0639e+00
      variance   = 0.0000e+00
      r2accepted = 1.0000e-10
      r2proposed = 1.0000e-10
  Set drift_modifier UNR parameter a = 1.0000e+00
  EstimatorManagerBase::add replace LocalEnergy estimator.
 Using QMCCostFunction::QMCCostFunction
 Using Default Cost Function: Cost = <|E-E_ff|^2>
  Set drift_modifier UNR parameter a = 1.0000e+00
  EstimatorManagerBase::add replace LocalEnergy estimator.
  EstimatorManagerBase::add replace LocalEnergy estimator.
entering engine_start function
<optimization-report>
<vmc stage="main" blocks="200">
  Cannot make clones again. Use existing 1 clones
  Initial partition of walkers 0 1 
Using ParameterDeriv Adjusted Guiding Function

  Using Particle by Particle moves
  Walker moves without drift
  Total Sample Size   =10000
  Walker distribution on root = 0 1 
  Anonymous Buffer size per walker : 1704 Bytes.
MEMORY increase 0 MB VMC::resetRun
====================================================
  SimpleFixedNodeBranch::finalize after a VMC block
    QMC counter        = 4
    time step          = 0.05
    reference energy   = -1.98838
    reference variance = 2.31807e-16
====================================================
  Execution time = 2.0421e-01
</vmc>
<opt stage="setup">
  <log>
     Reading configurations from h5FileRoot H4-descent.s004
  QMCCostFunction is created with 1 threads.
  Using Nonlocal PP in Opt: no
   Number of samples loaded to each thread : 10000 
Value of Filter Bool: false before_first_block_sample: true onDescentStep: true
Before engine_checkConfigurations
Double check filter inside engine_checkConfig: false
 w_tot 9.9991e+03
  VMC Eavg = -2.0420e+00
  VMC Evar = 1.7984e-01
  Total weights = 9.999057744e+03
Energy Average: -2.041999845e+00
Energy Variance: 1.798323097e-01
Weight Total: 2.000000000e+04
VGS Total: 1.999811549e+04
Energy Standard Deviation: 4.240663977e-01
Energy Standard Error: 4.240663977e-03
Target Function Average: 1.022743905e-01
Norm of Gradient Vector: 1.516936005e+00
After engine_checkConfig
  Execution time = 8.3926e-02
  </log>
</opt>
<opt stage="main" walkers="10000">
  <log>
Value of descent_num: 4
Number of Parameters: 31
Descent Number: 4
Finalization Descent Num (should be zero if not on last section): 0
Parameter Type step sizes:  TJF_2Body_eta=1.0000e-03 TJF_1Body_eta=1.0000e-033Body_eta1.0000e-04 F_eta=1.0000e-03 CI_eta=1.0000e-03 Orb_eta=1.0000e-03
Using AMSGrad
  Execution time = 2.8816e-01
  </log>
  <optVariables href="H4-descent.s004.opt.xml">
CSFcoeff_1 -5.135115e-01                3 1 ON  0
uu_0       5.702237e-01                 1 1 ON  1
uu_1       3.738746e-01                 1 1 ON  2
uu_2       2.153356e-01                 1 1 ON  3
uu_3       9.828436e-02                 1 1 ON  4
uu_4       6.210612e-03                 1 1 ON  5
uu_5       -3.736553e-02                1 1 ON  6
uu_6       -2.618349e-02                1 1 ON  7
uu_7       6.373466e-03                 1 1 ON  8
uu_8       3.112032e-02                 1 1 ON  9
uu_9       2.287034e-02                 1 1 ON  10
ud_0       9.200315e-01                 1 1 ON  11
ud_1       5.801135e-01                 1 1 ON  12
ud_2       3.403605e-01                 1 1 ON  13
ud_3       1.899648e-01                 1 1 ON  14
ud_4       9.237998e-02                 1 1 ON  15
ud_5       3.572581e-02                 1 1 ON  16
ud_6       3.217741e-02                 1 1 ON  17
ud_7       6.164234e-02                 1 1 ON  18
ud_8       7.696651e-02                 1 1 ON  19
ud_9       5.175026e-02                 1 1 ON  20
eH_0       2.042744e-02                 1 1 ON  21
eH_1       3.155227e-02                 1 1 ON  22
eH_2       -1.097180e-01                1 1 ON  23
eH_3       -9.600935e-02                1 1 ON  24
eH_4       -1.114510e-01                1 1 ON  25
eH_5       -8.416107e-02                1 1 ON  26
eH_6       -3.026829e-02                1 1 ON  27
eH_7       -1.777470e-03                1 1 ON  28
eH_8       1.127473e-02                 1 1 ON  29
eH_9       4.126343e-03                 1 1 ON  30
  </optVariables>
eH
Array
ud
Array
uu
Array
   Restore the number of walkers to 1, removing 0 walkers.
</opt>
</optimization-report>
  QMC Execution time = 2.8842e-01 secs
  Reusing QMCFixedSampleLinearOptimize
 Using QMCCostFunction::QMCCostFunction
 Using Default Cost Function: Cost = <|E-E_ff|^2>

=========================================================
  Start QMCFixedSampleLinearOptimize
  File Root H4-descent.s005 append = no 
=========================================================
  Skip QMCDriver::putQMCInfo 
  Resetting Properties of the walkers 1 x 14
Omega from input file: 0.0000e+00
Current collection step: -1
Target: generalized variational principle

=========================================================
  Start VMC
  File Root H4-descent.s005 append = no 
=========================================================
Using existing walkers 
  Resetting Properties of the walkers 1 x 14

<vmc function="put">
  qmc_counter=5  my_counter=0
  time step      = 5.0000e-02
  blocks         = 200
  steps          = 50
  substeps       = 1
  current        = 0
  target samples = 1.0000e+04
  walkers/mpi    = 1

  stepsbetweensamples = 1
<parameter name="blocks" condition="int">200</parameter>
<parameter name="blocks_between_recompute" condition="int">0</parameter>
<parameter name="check_properties" condition="int">100</parameter>
<parameter name="checkproperties" condition="int">100</parameter>
<parameter name="current" condition="int">0</parameter>
<parameter name="dmcwalkersperthread" condition="real">1.0000e+04</parameter>
<parameter name="fermionicweight" condition="real">1.0000e-04</parameter>
<parameter name="jastrowweight" condition="real">0.0000e+00</parameter>
<parameter name="maxcpusecs" condition="real">3.6000e+05</parameter>
<parameter name="mg_beta" condition="real">0.0000e+00</parameter>
<parameter name="mg_gamma" condition="real">0.0000e+00</parameter>
<parameter name="modifiedguiding" condition="string">ParameterDerivativeAdjusted</parameter>
<parameter name="orboptweight" condition="real">0.0000e+00</parameter>
<parameter name="record_configs" condition="int">0</parameter>
<parameter name="record_walkers" condition="int">1</parameter>
<parameter name="recordconfigs" condition="int">0</parameter>
<parameter name="recordwalkers" condition="int">1</parameter>
<parameter name="rewind" condition="int">0</parameter>
<parameter name="samples" condition="real">1.0000e+04</parameter>
<parameter name="samplesperthread" condition="real">1.0000e+04</parameter>
<parameter name="steps" condition="int">50</parameter>
<parameter name="stepsbetweensamples" condition="int">1</parameter>
<parameter name="store_configs" condition="int">0</parameter>
<parameter name="storeconfigs" condition="int">0</parameter>
<parameter name="sub_steps" condition="int">1</parameter>
<parameter name="substeps" condition="int">1</parameter>
<parameter name="tau" condition="au">5.0000e-02</parameter>
<parameter name="time_step" condition="au">5.0000e-02</parameter>
<parameter name="timestep" condition="au">5.0000e-02</parameter>
<parameter name="use_drift" condition="string">no</parameter>
<parameter name="usedrift" condition="string">no</parameter>
<parameter name="walkers" condition="int">1</parameter>
<parameter name="warmup_steps" condition="int">1000</parameter>
<parameter name="warmupsteps" condition="int">1000</parameter>
  DumpConfig==false Nothing (configurations, state) will be saved.
  Walker Samples are dumped every 1 steps.
</vmc>
    Restarting, cummulative properties:
      energy     = -2.0488e+00
      variance   = 0.0000e+00
      r2accepted = 1.0000e-10
      r2proposed = 1.0000e-10
  Set drift_modifier UNR parameter a = 1.0000e+00
  EstimatorManagerBase::add replace LocalEnergy estimator.
 Using QMCCostFunction::QMCCostFunction
 Using Default Cost Function: Cost = <|E-E_ff|^2>
  Set drift_modifier UNR parameter a = 1.0000e+00
  EstimatorManagerBase::add replace LocalEnergy estimator.
  EstimatorManagerBase::add replace LocalEnergy estimator.
entering engine_start function
<optimization-report>
<vmc stage="main" blocks="200">
  Cannot make clones again. Use existing 1 clones
  Initial partition of walkers 0 1 
Using ParameterDeriv Adjusted Guiding Function

  Using Particle by Particle moves
  Walker moves without drift
  Total Sample Size   =10000
  Walker distribution on root = 0 1 
  Anonymous Buffer size per walker : 1704 Bytes.
MEMORY increase 0 MB VMC::resetRun
====================================================
  SimpleFixedNodeBranch::finalize after a VMC block
    QMC counter        = 5
    time step          = 0.05
    reference energy   = -2.02381
    reference variance = -4.13596e-16
====================================================
  Execution time = 2.0490e-01
</vmc>
<opt stage="setup">
  <log>
     Reading configurations from h5FileRoot H4-descent.s005
  QMCCostFunction is created with 1 threads.
  Using Nonlocal PP in Opt: no
   Number of samples loaded to each thread : 10000 
Value of Filter Bool: false before_first_block_sample: true onDescentStep: true
Before engine_checkConfigurations
Double check filter inside engine_checkConfig: false
 w_tot 9.9991e+03
  VMC Eavg = -2.0744e+00
  VMC Evar = 1.8063e-01
  Total weights = 9.999057365e+03
Energy Average: -2.074445449e+00
Energy Variance: 1.806043427e-01
Weight Total: 2.000000000e+04
VGS Total: 1.999811473e+04
Energy Standard Deviation: 4.249756966e-01
Energy Standard Error: 4.249756966e-03
Target Function Average: 1.243481504e-01
Norm of Gradient Vector: 1.787786741e+00
After engine_checkConfig
  Execution time = 8.4970e-02
  </log>
</opt>
<opt stage="main" walkers="10000">
  <log>
Value of descent_num: 5
Number of Parameters: 31
Descent Number: 5
Finalization Descent Num (should be zero if not on last section): 0
Parameter Type step sizes:  TJF_2Body_eta=1.0000e-03 TJF_1Body_eta=1.0000e-033Body_eta1.0000e-04 F_eta=1.0000e-03 CI_eta=1.0000e-03 Orb_eta=1.0000e-03
Using AMSGrad
  Execution time = 2.8989e-01
  </log>
  <optVariables href="H4-descent.s005.opt.xml">
CSFcoeff_1 -5.117583e-01                3 1 ON  0
uu_0       5.702432e-01                 1 1 ON  1
uu_1       3.745465e-01                 1 1 ON  2
uu_2       2.167284e-01                 1 1 ON  3
uu_3       9.871673e-02                 1 1 ON  4
uu_4       6.632000e-03                 1 1 ON  5
uu_5       -3.714459e-02                1 1 ON  6
uu_6       -2.604919e-02                1 1 ON  7
uu_7       6.056326e-03                 1 1 ON  8
uu_8       2.959960e-02                 1 1 ON  9
uu_9       2.116790e-02                 1 1 ON  10
ud_0       9.197309e-01                 1 1 ON  11
ud_1       5.804678e-01                 1 1 ON  12
ud_2       3.391566e-01                 1 1 ON  13
ud_3       1.909516e-01                 1 1 ON  14
ud_4       9.274921e-02                 1 1 ON  15
ud_5       3.603260e-02                 1 1 ON  16
ud_6       3.216433e-02                 1 1 ON  17
ud_7       6.121483e-02                 1 1 ON  18
ud_8       7.700139e-02                 1 1 ON  19
ud_9       5.092526e-02                 1 1 ON  20
eH_0       2.071677e-02                 1 1 ON  21
eH_1       3.297110e-02                 1 1 ON  22
eH_2       -1.096148e-01                1 1 ON  23
eH_3       -9.552088e-02                1 1 ON  24
eH_4       -1.129071e-01                1 1 ON  25
eH_5       -8.483504e-02                1 1 ON  26
eH_6       -2.884499e-02                1 1 ON  27
eH_7       -9.858150e-04                1 1 ON  28
eH_8       1.060200e-02                 1 1 ON  29
eH_9       5.294671e-03                 1 1 ON  30
  </optVariables>
eH
Array
ud
Array
uu
Array
   Restore the number of walkers to 1, removing 0 walkers.
</opt>
</optimization-report>
  QMC Execution time = 2.9013e-01 secs
  Reusing QMCFixedSampleLinearOptimize
 Using QMCCostFunction::QMCCostFunction
 Using Default Cost Function: Cost = <|E-E_ff|^2>

=========================================================
  Start QMCFixedSampleLinearOptimize
  File Root H4-descent.s006 append = no 
=========================================================
  Skip QMCDriver::putQMCInfo 
  Resetting Properties of the walkers 1 x 14
Omega from input file: 0.0000e+00
Current collection step: -1
Target: generalized variational principle

=========================================================
  Start VMC
  File Root H4-descent.s006 append = no 
=========================================================
Using existing walkers 
  Resetting Properties of the walkers 1 x 14

<vmc function="put">
  qmc_counter=6  my_counter=0
  time step      = 5.0000e-02
  blocks         = 200
  steps          = 50
  substeps       = 1
  current        = 0
  target samples = 1.0000e+04
  walkers/mpi    = 1

  stepsbetweensamples = 1
<parameter name="blocks" condition="int">200</parameter>
<parameter name="blocks_between_recompute" condition="int">0</parameter>
<parameter name="check_properties" condition="int">100</parameter>
<parameter name="checkproperties" condition="int">100</parameter>
<parameter name="current" condition="int">0</parameter>
<parameter name="dmcwalkersperthread" condition="real">1.0000e+04</parameter>
<parameter name="fermionicweight" condition="real">1.0000e-04</parameter>
<parameter name="jastrowweight" condition="real">0.0000e+00</parameter>
<parameter name="maxcpusecs" condition="real">3.6000e+05</parameter>
<parameter name="mg_beta" condition="real">0.0000e+00</parameter>
<parameter name="mg_gamma" condition="real">0.0000e+00</parameter>
<parameter name="modifiedguiding" condition="string">ParameterDerivativeAdjusted</parameter>
<parameter name="orboptweight" condition="real">0.0000e+00</parameter>
<parameter name="record_configs" condition="int">0</parameter>
<parameter name="record_walkers" condition="int">1</parameter>
<parameter name="recordconfigs" condition="int">0</parameter>
<parameter name="recordwalkers" condition="int">1</parameter>
<parameter name="rewind" condition="int">0</parameter>
<parameter name="samples" condition="real">1.0000e+04</parameter>
<parameter name="samplesperthread" condition="real">1.0000e+04</parameter>
<parameter name="steps" condition="int">50</parameter>
<parameter name="stepsbetweensamples" condition="int">1</parameter>
<parameter name="store_configs" condition="int">0</parameter>
<parameter name="storeconfigs" condition="int">0</parameter>
<parameter name="sub_steps" condition="int">1</parameter>
<parameter name="substeps" condition="int">1</parameter>
<parameter name="tau" condition="au">5.0000e-02</parameter>
<parameter name="time_step" condition="au">5.0000e-02</parameter>
<parameter name="timestep" condition="au">5.0000e-02</parameter>
<parameter name="use_drift" condition="string">no</parameter>
<parameter name="usedrift" condition="string">no</parameter>
<parameter name="walkers" condition="int">1</parameter>
<parameter name="warmup_steps" condition="int">1000</parameter>
<parameter name="warmupsteps" condition="int">1000</parameter>
  DumpConfig==false Nothing (configurations, state) will be saved.
  Walker Samples are dumped every 1 steps.
</vmc>
    Restarting, cummulative properties:
      energy     = -2.0446e+00
      variance   = 0.0000e+00
      r2accepted = 1.0000e-10
      r2proposed = 1.0000e-10
  Set drift_modifier UNR parameter a = 1.0000e+00
  EstimatorManagerBase::add replace LocalEnergy estimator.
 Using QMCCostFunction::QMCCostFunction
 Using Default Cost Function: Cost = <|E-E_ff|^2>
  Set drift_modifier UNR parameter a = 1.0000e+00
  EstimatorManagerBase::add replace LocalEnergy estimator.
  EstimatorManagerBase::add replace LocalEnergy estimator.
entering engine_start function
<optimization-report>
<vmc stage="main" blocks="200">
  Cannot make clones again. Use existing 1 clones
  Initial partition of walkers 0 1 
Using ParameterDeriv Adjusted Guiding Function

  Using Particle by Particle moves
  Walker moves without drift
  Total Sample Size   =10000
  Walker distribution on root = 0 1 
  Anonymous Buffer size per walker : 1704 Bytes.
MEMORY increase 0 MB VMC::resetRun
====================================================
  SimpleFixedNodeBranch::finalize after a VMC block
    QMC counter        = 6
    time step          = 0.05
    reference energy   = -1.99806
    reference variance = 3.23995e-17
====================================================
  Execution time = 2.0467e-01
</vmc>
<opt stage="setup">
  <log>
     Reading configurations from h5FileRoot H4-descent.s006
  QMCCostFunction is created with 1 threads.
  Using Nonlocal PP in Opt: no
   Number of samples loaded to each thread : 10000 
Value of Filter Bool: false before_first_block_sample: true onDescentStep: true
Before engine_checkConfigurations
Double check filter inside engine_checkConfig: false
 w_tot 9.9992e+03
  VMC Eavg = -2.0737e+00
  VMC Evar = 1.5647e-01
  Total weights = 9.999168126e+03
Energy Average: -2.073716240e+00
Energy Variance: 1.564740476e-01
Weight Total: 2.000000000e+04
VGS Total: 1.999833625e+04
Energy Standard Deviation: 3.955680063e-01
Energy Standard Error: 3.955680063e-03
Target Function Average: 1.836243308e-01
Norm of Gradient Vector: 2.505341152e+00
After engine_checkConfig
  Execution time = 8.4696e-02
  </log>
</opt>
<opt stage="main" walkers="10000">
  <log>
Value of descent_num: 6
Number of Parameters: 31
Descent Number: 6
Finalization Descent Num (should be zero if not on last section): 0
Parameter Type step sizes:  TJF_2Body_eta=1.0000e-03 TJF_1Body_eta=1.0000e-033Body_eta1.0000e-04 F_eta=1.0000e-03 CI_eta=1.0000e-03 Orb_eta=1.0000e-03
Using AMSGrad
  Execution time = 2.8939e-01
  </log>
  <optVariables href="H4-descent.s006.opt.xml">
CSFcoeff_1 -5.099450e-01                3 1 ON  0
uu_0       5.700985e-01                 1 1 ON  1
uu_1       3.754401e-01                 1 1 ON  2
uu_2       2.181085e-01                 1 1 ON  3
uu_3       9.911456e-02                 1 1 ON  4
uu_4       7.647613e-03                 1 1 ON  5
uu_5       -3.715828e-02                1 1 ON  6
uu_6       -2.637202e-02                1 1 ON  7
uu_7       5.289093e-03                 1 1 ON  8
uu_8       2.810439e-02                 1 1 ON  9
uu_9       2.058162e-02                 1 1 ON  10
ud_0       9.191165e-01                 1 1 ON  11
ud_1       5.810601e-01                 1 1 ON  12
ud_2       3.383756e-01                 1 1 ON  13
ud_3       1.919272e-01                 1 1 ON  14
ud_4       9.301949e-02                 1 1 ON  15
ud_5       3.645009e-02                 1 1 ON  16
ud_6       3.236025e-02                 1 1 ON  17
ud_7       6.034200e-02                 1 1 ON  18
ud_8       7.719314e-02                 1 1 ON  19
ud_9       4.995735e-02                 1 1 ON  20
eH_0       2.112616e-02                 1 1 ON  21
eH_1       3.303970e-02                 1 1 ON  22
eH_2       -1.089055e-01                1 1 ON  23
eH_3       -9.579378e-02                1 1 ON  24
eH_4       -1.139793e-01                1 1 ON  25
eH_5       -8.532569e-02                1 1 ON  26
eH_6       -2.763281e-02                1 1 ON  27
eH_7       -3.236599e-04                1 1 ON  28
eH_8       1.045539e-02                 1 1 ON  29
eH_9       6.342779e-03                 1 1 ON  30
  </optVariables>
eH
Array
ud
Array
uu
Array
   Restore the number of walkers to 1, removing 0 walkers.
</opt>
</optimization-report>
  QMC Execution time = 2.8963e-01 secs
  Reusing QMCFixedSampleLinearOptimize
 Using QMCCostFunction::QMCCostFunction
 Using Default Cost Function: Cost = <|E-E_ff|^2>

=========================================================
  Start QMCFixedSampleLinearOptimize
  File Root H4-descent.s007 append = no 
=========================================================
  Skip QMCDriver::putQMCInfo 
  Resetting Properties of the walkers 1 x 14
Omega from input file: 0.0000e+00
Current collection step: -1
Target: generalized variational principle

=========================================================
  Start VMC
  File Root H4-descent.s007 append = no 
=========================================================
Using existing walkers 
  Resetting Properties of the walkers 1 x 14

<vmc function="put">
  qmc_counter=7  my_counter=0
  time step      = 5.0000e-02
  blocks         = 200
  steps          = 50
  substeps       = 1
  current        = 0
  target samples = 1.0000e+04
  walkers/mpi    = 1

  stepsbetweensamples = 1
<parameter name="blocks" condition="int">200</parameter>
<parameter name="blocks_between_recompute" condition="int">0</parameter>
<parameter name="check_properties" condition="int">100</parameter>
<parameter name="checkproperties" condition="int">100</parameter>
<parameter name="current" condition="int">0</parameter>
<parameter name="dmcwalkersperthread" condition="real">1.0000e+04</parameter>
<parameter name="fermionicweight" condition="real">1.0000e-04</parameter>
<parameter name="jastrowweight" condition="real">0.0000e+00</parameter>
<parameter name="maxcpusecs" condition="real">3.6000e+05</parameter>
<parameter name="mg_beta" condition="real">0.0000e+00</parameter>
<parameter name="mg_gamma" condition="real">0.0000e+00</parameter>
<parameter name="modifiedguiding" condition="string">ParameterDerivativeAdjusted</parameter>
<parameter name="orboptweight" condition="real">0.0000e+00</parameter>
<parameter name="record_configs" condition="int">0</parameter>
<parameter name="record_walkers" condition="int">1</parameter>
<parameter name="recordconfigs" condition="int">0</parameter>
<parameter name="recordwalkers" condition="int">1</parameter>
<parameter name="rewind" condition="int">0</parameter>
<parameter name="samples" condition="real">1.0000e+04</parameter>
<parameter name="samplesperthread" condition="real">1.0000e+04</parameter>
<parameter name="steps" condition="int">50</parameter>
<parameter name="stepsbetweensamples" condition="int">1</parameter>
<parameter name="store_configs" condition="int">0</parameter>
<parameter name="storeconfigs" condition="int">0</parameter>
<parameter name="sub_steps" condition="int">1</parameter>
<parameter name="substeps" condition="int">1</parameter>
<parameter name="tau" condition="au">5.0000e-02</parameter>
<parameter name="time_step" condition="au">5.0000e-02</parameter>
<parameter name="timestep" condition="au">5.0000e-02</parameter>
<parameter name="use_drift" condition="string">no</parameter>
<parameter name="usedrift" condition="string">no</parameter>
<parameter name="walkers" condition="int">1</parameter>
<parameter name="warmup_steps" condition="int">1000</parameter>
<parameter name="warmupsteps" condition="int">1000</parameter>
  DumpConfig==false Nothing (configurations, state) will be saved.
  Walker Samples are dumped every 1 steps.
</vmc>
    Restarting, cummulative properties:
      energy     = -2.0380e+00
      variance   = 0.0000e+00
      r2accepted = 1.0000e-10
      r2proposed = 1.0000e-10
  Set drift_modifier UNR parameter a = 1.0000e+00
  EstimatorManagerBase::add replace LocalEnergy estimator.
 Using QMCCostFunction::QMCCostFunction
 Using Default Cost Function: Cost = <|E-E_ff|^2>
  Set drift_modifier UNR parameter a = 1.0000e+00
  EstimatorManagerBase::add replace LocalEnergy estimator.
  EstimatorManagerBase::add replace LocalEnergy estimator.
entering engine_start function
<optimization-report>
<vmc stage="main" blocks="200">
  Cannot make clones again. Use existing 1 clones
  Initial partition of walkers 0 1 
Using ParameterDeriv Adjusted Guiding Function

  Using Particle by Particle moves
  Walker moves without drift
  Total Sample Size   =10000
  Walker distribution on root = 0 1 
  Anonymous Buffer size per walker : 1704 Bytes.
MEMORY increase 0 MB VMC::resetRun
====================================================
  SimpleFixedNodeBranch::finalize after a VMC block
    QMC counter        = 7
    time step          = 0.05
    reference energy   = -1.13907
    reference variance = -6.21923e-17
====================================================
  Execution time = 2.0575e-01
</vmc>
<opt stage="setup">
  <log>
     Reading configurations from h5FileRoot H4-descent.s007
  QMCCostFunction is created with 1 threads.
  Using Nonlocal PP in Opt: no
   Number of samples loaded to each thread : 10000 
Value of Filter Bool: false before_first_block_sample: true onDescentStep: true
Before engine_checkConfigurations
Double check filter inside engine_checkConfig: false
 w_tot 9.9976e+03
  VMC Eavg = -2.0908e+00
  VMC Evar = 2.0012e-01
  Total weights = 9.997611546e+03
Energy Average: -2.090809712e+00
Energy Variance: 1.912084552e-01
Weight Total: 2.000000000e+04
VGS Total: 1.999522309e+04
Energy Standard Deviation: 4.372738904e-01
Energy Standard Error: 4.372738904e-03
Target Function Average: 9.893396535e-02
Norm of Gradient Vector: 1.821437478e+00
After engine_checkConfig
  Execution time = 8.6268e-02
  </log>
</opt>
<opt stage="main" walkers="10000">
  <log>
Value of descent_num: 7
Number of Parameters: 31
Descent Number: 7
Finalization Descent Num (should be zero if not on last section): 0
Parameter Type step sizes:  TJF_2Body_eta=1.0000e-03 TJF_1Body_eta=1.0000e-033Body_eta1.0000e-04 F_eta=1.0000e-03 CI_eta=1.0000e-03 Orb_eta=1.0000e-03
Using AMSGrad
  Execution time = 2.9205e-01
  </log>
  <optVariables href="H4-descent.s007.opt.xml">
CSFcoeff_1 -5.081332e-01                3 1 ON  0
uu_0       5.698871e-01                 1 1 ON  1
uu_1       3.763272e-01                 1 1 ON  2
uu_2       2.196842e-01                 1 1 ON  3
uu_3       9.984614e-02                 1 1 ON  4
uu_4       8.390390e-03                 1 1 ON  5
uu_5       -3.776749e-02                1 1 ON  6
uu_6       -2.703703e-02                1 1 ON  7
uu_7       4.164896e-03                 1 1 ON  8
uu_8       2.718707e-02                 1 1 ON  9
uu_9       2.086258e-02                 1 1 ON  10
ud_0       9.181754e-01                 1 1 ON  11
ud_1       5.815651e-01                 1 1 ON  12
ud_2       3.377454e-01                 1 1 ON  13
ud_3       1.925400e-01                 1 1 ON  14
ud_4       9.341350e-02                 1 1 ON  15
ud_5       3.696131e-02                 1 1 ON  16
ud_6       3.281302e-02                 1 1 ON  17
ud_7       5.924441e-02                 1 1 ON  18
ud_8       7.724317e-02                 1 1 ON  19
ud_9       4.917743e-02                 1 1 ON  20
eH_0       2.166157e-02                 1 1 ON  21
eH_1       3.301343e-02                 1 1 ON  22
eH_2       -1.084184e-01                1 1 ON  23
eH_3       -9.558020e-02                1 1 ON  24
eH_4       -1.151738e-01                1 1 ON  25
eH_5       -8.585980e-02                1 1 ON  26
eH_6       -2.639307e-02                1 1 ON  27
eH_7       5.115882e-04                 1 1 ON  28
eH_8       9.948252e-03                 1 1 ON  29
eH_9       7.639599e-03                 1 1 ON  30
  </optVariables>
eH
Array
ud
Array
uu
Array
   Restore the number of walkers to 1, removing 0 walkers.
</opt>
</optimization-report>
  QMC Execution time = 2.9231e-01 secs
  Reusing QMCFixedSampleLinearOptimize
 Using QMCCostFunction::QMCCostFunction
 Using Default Cost Function: Cost = <|E-E_ff|^2>

=========================================================
  Start QMCFixedSampleLinearOptimize
  File Root H4-descent.s008 append = no 
=========================================================
  Skip QMCDriver::putQMCInfo 
  Resetting Properties of the walkers 1 x 14
Omega from input file: 0.0000e+00
Current collection step: -1
Target: generalized variational principle

=========================================================
  Start VMC
  File Root H4-descent.s008 append = no 
=========================================================
Using existing walkers 
  Resetting Properties of the walkers 1 x 14

<vmc function="put">
  qmc_counter=8  my_counter=0
  time step      = 5.0000e-02
  blocks         = 200
  steps          = 50
  substeps       = 1
  current        = 0
  target samples = 1.0000e+04
  walkers/mpi    = 1

  stepsbetweensamples = 1
<parameter name="blocks" condition="int">200</parameter>
<parameter name="blocks_between_recompute" condition="int">0</parameter>
<parameter name="check_properties" condition="int">100</parameter>
<parameter name="checkproperties" condition="int">100</parameter>
<parameter name="current" condition="int">0</parameter>
<parameter name="dmcwalkersperthread" condition="real">1.0000e+04</parameter>
<parameter name="fermionicweight" condition="real">1.0000e-04</parameter>
<parameter name="jastrowweight" condition="real">0.0000e+00</parameter>
<parameter name="maxcpusecs" condition="real">3.6000e+05</parameter>
<parameter name="mg_beta" condition="real">0.0000e+00</parameter>
<parameter name="mg_gamma" condition="real">0.0000e+00</parameter>
<parameter name="modifiedguiding" condition="string">ParameterDerivativeAdjusted</parameter>
<parameter name="orboptweight" condition="real">0.0000e+00</parameter>
<parameter name="record_configs" condition="int">0</parameter>
<parameter name="record_walkers" condition="int">1</parameter>
<parameter name="recordconfigs" condition="int">0</parameter>
<parameter name="recordwalkers" condition="int">1</parameter>
<parameter name="rewind" condition="int">0</parameter>
<parameter name="samples" condition="real">1.0000e+04</parameter>
<parameter name="samplesperthread" condition="real">1.0000e+04</parameter>
<parameter name="steps" condition="int">50</parameter>
<parameter name="stepsbetweensamples" condition="int">1</parameter>
<parameter name="store_configs" condition="int">0</parameter>
<parameter name="storeconfigs" condition="int">0</parameter>
<parameter name="sub_steps" condition="int">1</parameter>
<parameter name="substeps" condition="int">1</parameter>
<parameter name="tau" condition="au">5.0000e-02</parameter>
<parameter name="time_step" condition="au">5.0000e-02</parameter>
<parameter name="timestep" condition="au">5.0000e-02</parameter>
<parameter name="use_drift" condition="string">no</parameter>
<parameter name="usedrift" condition="string">no</parameter>
<parameter name="walkers" condition="int">1</parameter>
<parameter name="warmup_steps" condition="int">1000</parameter>
<parameter name="warmupsteps" condition="int">1000</parameter>
  DumpConfig==false Nothing (configurations, state) will be saved.
  Walker Samples are dumped every 1 steps.
</vmc>
    Restarting, cummulative properties:
      energy     = -1.9256e+00
      variance   = 0.0000e+00
      r2accepted = 1.0000e-10
      r2proposed = 1.0000e-10
  Set drift_modifier UNR parameter a = 1.0000e+00
  EstimatorManagerBase::add replace LocalEnergy estimator.
 Using QMCCostFunction::QMCCostFunction
 Using Default Cost Function: Cost = <|E-E_ff|^2>
  Set drift_modifier UNR parameter a = 1.0000e+00
  EstimatorManagerBase::add replace LocalEnergy estimator.
  EstimatorManagerBase::add replace LocalEnergy estimator.
entering engine_start function
<optimization-report>
<vmc stage="main" blocks="200">
  Cannot make clones again. Use existing 1 clones
  Initial partition of walkers 0 1 
Using ParameterDeriv Adjusted Guiding Function

  Using Particle by Particle moves
  Walker moves without drift
  Total Sample Size   =10000
  Walker distribution on root = 0 1 
  Anonymous Buffer size per walker : 1704 Bytes.
MEMORY increase 0 MB VMC::resetRun
====================================================
  SimpleFixedNodeBranch::finalize after a VMC block
    QMC counter        = 8
    time step          = 0.05
    reference energy   = -1.65358
    reference variance = -2.79899e-16
====================================================
  Execution time = 2.0400e-01
</vmc>
<opt stage="setup">
  <log>
     Reading configurations from h5FileRoot H4-descent.s008
  QMCCostFunction is created with 1 threads.
  Using Nonlocal PP in Opt: no
   Number of samples loaded to each thread : 10000 
Value of Filter Bool: false before_first_block_sample: true onDescentStep: true
Before engine_checkConfigurations
Double check filter inside engine_checkConfig: false
 w_tot 9.9986e+03
  VMC Eavg = -2.0551e+00
  VMC Evar = 2.0043e-01
  Total weights = 9.998584640e+03
Energy Average: -2.055080070e+00
Energy Variance: 2.002309969e-01
Weight Total: 2.000000000e+04
VGS Total: 1.999716928e+04
Energy Standard Deviation: 4.474717833e-01
Energy Standard Error: 4.474717833e-03
Target Function Average: 1.372184313e-01
Norm of Gradient Vector: 1.738055824e+00
After engine_checkConfig
  Execution time = 8.5399e-02
  </log>
</opt>
<opt stage="main" walkers="10000">
  <log>
Value of descent_num: 8
Number of Parameters: 31
Descent Number: 8
Finalization Descent Num (should be zero if not on last section): 0
Parameter Type step sizes:  TJF_2Body_eta=1.0000e-03 TJF_1Body_eta=1.0000e-033Body_eta1.0000e-04 F_eta=1.0000e-03 CI_eta=1.0000e-03 Orb_eta=1.0000e-03
Using AMSGrad
  Execution time = 2.8943e-01
  </log>
  <optVariables href="H4-descent.s008.opt.xml">
CSFcoeff_1 -5.062959e-01                3 1 ON  0
uu_0       5.695350e-01                 1 1 ON  1
uu_1       3.771668e-01                 1 1 ON  2
uu_2       2.210764e-01                 1 1 ON  3
uu_3       1.007877e-01                 1 1 ON  4
uu_4       9.561714e-03                 1 1 ON  5
uu_5       -3.840208e-02                1 1 ON  6
uu_6       -2.813260e-02                1 1 ON  7
uu_7       2.970989e-03                 1 1 ON  8
uu_8       2.629124e-02                 1 1 ON  9
uu_9       2.053340e-02                 1 1 ON  10
ud_0       9.170215e-01                 1 1 ON  11
ud_1       5.823127e-01                 1 1 ON  12
ud_2       3.380879e-01                 1 1 ON  13
ud_3       1.931912e-01                 1 1 ON  14
ud_4       9.358593e-02                 1 1 ON  15
ud_5       3.652684e-02                 1 1 ON  16
ud_6       3.320886e-02                 1 1 ON  17
ud_7       5.837520e-02                 1 1 ON  18
ud_8       7.737032e-02                 1 1 ON  19
ud_9       4.822385e-02                 1 1 ON  20
eH_0       2.168517e-02                 1 1 ON  21
eH_1       3.350259e-02                 1 1 ON  22
eH_2       -1.079092e-01                1 1 ON  23
eH_3       -9.537031e-02                1 1 ON  24
eH_4       -1.160259e-01                1 1 ON  25
eH_5       -8.638907e-02                1 1 ON  26
eH_6       -2.557104e-02                1 1 ON  27
eH_7       1.115080e-03                 1 1 ON  28
eH_8       9.956959e-03                 1 1 ON  29
eH_9       9.123405e-03                 1 1 ON  30
  </optVariables>
eH
Array
ud
Array
uu
Array
   Restore the number of walkers to 1, removing 0 walkers.
</opt>
</optimization-report>
  QMC Execution time = 2.8968e-01 secs
  Reusing QMCFixedSampleLinearOptimize
 Using QMCCostFunction::QMCCostFunction
 Using Default Cost Function: Cost = <|E-E_ff|^2>

=========================================================
  Start QMCFixedSampleLinearOptimize
  File Root H4-descent.s009 append = no 
=========================================================
  Skip QMCDriver::putQMCInfo 
  Resetting Properties of the walkers 1 x 14
Omega from input file: 0.0000e+00
Current collection step: -1
Target: generalized variational principle

=========================================================
  Start VMC
  File Root H4-descent.s009 append = no 
=========================================================
Using existing walkers 
  Resetting Properties of the walkers 1 x 14

<vmc function="put">
  qmc_counter=9  my_counter=0
  time step      = 5.0000e-02
  blocks         = 200
  steps          = 50
  substeps       = 1
  current        = 0
  target samples = 1.0000e+04
  walkers/mpi    = 1

  stepsbetweensamples = 1
<parameter name="blocks" condition="int">200</parameter>
<parameter name="blocks_between_recompute" condition="int">0</parameter>
<parameter name="check_properties" condition="int">100</parameter>
<parameter name="checkproperties" condition="int">100</parameter>
<parameter name="current" condition="int">0</parameter>
<parameter name="dmcwalkersperthread" condition="real">1.0000e+04</parameter>
<parameter name="fermionicweight" condition="real">1.0000e-04</parameter>
<parameter name="jastrowweight" condition="real">0.0000e+00</parameter>
<parameter name="maxcpusecs" condition="real">3.6000e+05</parameter>
<parameter name="mg_beta" condition="real">0.0000e+00</parameter>
<parameter name="mg_gamma" condition="real">0.0000e+00</parameter>
<parameter name="modifiedguiding" condition="string">ParameterDerivativeAdjusted</parameter>
<parameter name="orboptweight" condition="real">0.0000e+00</parameter>
<parameter name="record_configs" condition="int">0</parameter>
<parameter name="record_walkers" condition="int">1</parameter>
<parameter name="recordconfigs" condition="int">0</parameter>
<parameter name="recordwalkers" condition="int">1</parameter>
<parameter name="rewind" condition="int">0</parameter>
<parameter name="samples" condition="real">1.0000e+04</parameter>
<parameter name="samplesperthread" condition="real">1.0000e+04</parameter>
<parameter name="steps" condition="int">50</parameter>
<parameter name="stepsbetweensamples" condition="int">1</parameter>
<parameter name="store_configs" condition="int">0</parameter>
<parameter name="storeconfigs" condition="int">0</parameter>
<parameter name="sub_steps" condition="int">1</parameter>
<parameter name="substeps" condition="int">1</parameter>
<parameter name="tau" condition="au">5.0000e-02</parameter>
<parameter name="time_step" condition="au">5.0000e-02</parameter>
<parameter name="timestep" condition="au">5.0000e-02</parameter>
<parameter name="use_drift" condition="string">no</parameter>
<parameter name="usedrift" condition="string">no</parameter>
<parameter name="walkers" condition="int">1</parameter>
<parameter name="warmup_steps" condition="int">1000</parameter>
<parameter name="warmupsteps" condition="int">1000</parameter>
[...]
<parameter name="walkers" condition="int">1</parameter>
<parameter name="warmup_steps" condition="int">1000</parameter>
<parameter name="warmupsteps" condition="int">1000</parameter>
  DumpConfig==false Nothing (configurations, state) will be saved.
  Walker Samples are dumped every 1 steps.
</vmc>
    Restarting, cummulative properties:
      energy     = -2.0411e+00
      variance   = 0.0000e+00
      r2accepted = 1.0000e-10
      r2proposed = 1.0000e-10
  Set drift_modifier UNR parameter a = 1.0000e+00
  EstimatorManagerBase::add replace LocalEnergy estimator.
 Using QMCCostFunction::QMCCostFunction
 Using Default Cost Function: Cost = <|E-E_ff|^2>
  Set drift_modifier UNR parameter a = 1.0000e+00
  EstimatorManagerBase::add replace LocalEnergy estimator.
  EstimatorManagerBase::add replace LocalEnergy estimator.
entering engine_start function
<optimization-report>
<vmc stage="main" blocks="200">
  Cannot make clones again. Use existing 1 clones
  Initial partition of walkers 0 1 
Using ParameterDeriv Adjusted Guiding Function

  Using Particle by Particle moves
  Walker moves without drift
  Total Sample Size   =10000
  Walker distribution on root = 0 1 
  Anonymous Buffer size per walker : 1704 Bytes.
MEMORY increase 0 MB VMC::resetRun
====================================================
  SimpleFixedNodeBranch::finalize after a VMC block
    QMC counter        = 97
    time step          = 0.05
    reference energy   = -2.23036
    reference variance = 6.53382e-16
====================================================
  Execution time = 2.0643e-01
</vmc>
<opt stage="setup">
  <log>
     Reading configurations from h5FileRoot H4-descent.s097
  QMCCostFunction is created with 1 threads.
  Using Nonlocal PP in Opt: no
   Number of samples loaded to each thread : 10000 
Value of Filter Bool: false before_first_block_sample: true onDescentStep: true
Before engine_checkConfigurations
Double check filter inside engine_checkConfig: false
 w_tot 9.9988e+03
  VMC Eavg = -2.0955e+00
  VMC Evar = 1.6750e-01
  Total weights = 9.998786827e+03
Energy Average: -2.095512389e+00
Energy Variance: 1.675100717e-01
Weight Total: 2.000000000e+04
VGS Total: 1.999757365e+04
Energy Standard Deviation: 4.092799429e-01
Energy Standard Error: 4.092799429e-03
Target Function Average: 1.142388550e-01
Norm of Gradient Vector: 1.526001237e+00
After engine_checkConfig
  Execution time = 8.7896e-02
  </log>
</opt>
<opt stage="main" walkers="10000">
  <log>
Value of descent_num: 97
Number of Parameters: 31
Descent Number: 97
Finalization Descent Num (should be zero if not on last section): 0
Parameter Type step sizes:  TJF_2Body_eta=1.0000e-03 TJF_1Body_eta=1.0000e-033Body_eta1.0000e-04 F_eta=1.0000e-03 CI_eta=1.0000e-03 Orb_eta=1.0000e-03
Using AMSGrad
  Execution time = 2.9436e-01
  </log>
  <optVariables href="H4-descent.s097.opt.xml">
CSFcoeff_1 -3.765019e-01                3 1 ON  0
uu_0       5.827536e-01                 1 1 ON  1
uu_1       4.112817e-01                 1 1 ON  2
uu_2       2.830565e-01                 1 1 ON  3
uu_3       1.349275e-01                 1 1 ON  4
uu_4       3.588207e-02                 1 1 ON  5
uu_5       -2.904254e-02                1 1 ON  6
uu_6       -6.717564e-02                1 1 ON  7
uu_7       -4.303695e-02                1 1 ON  8
uu_8       -9.243565e-03                1 1 ON  9
uu_9       8.056463e-03                 1 1 ON  10
ud_0       8.958874e-01                 1 1 ON  11
ud_1       5.786182e-01                 1 1 ON  12
ud_2       3.514438e-01                 1 1 ON  13
ud_3       1.989498e-01                 1 1 ON  14
ud_4       1.124432e-01                 1 1 ON  15
ud_5       3.737521e-02                 1 1 ON  16
ud_6       3.673044e-02                 1 1 ON  17
ud_7       4.215364e-02                 1 1 ON  18
ud_8       7.264048e-02                 1 1 ON  19
ud_9       3.989216e-02                 1 1 ON  20
eH_0       3.221686e-02                 1 1 ON  21
eH_1       4.963680e-02                 1 1 ON  22
eH_2       -1.138949e-01                1 1 ON  23
eH_3       -8.367130e-02                1 1 ON  24
eH_4       -1.211058e-01                1 1 ON  25
eH_5       -7.868184e-02                1 1 ON  26
eH_6       -2.995774e-02                1 1 ON  27
eH_7       1.358289e-02                 1 1 ON  28
eH_8       4.364275e-02                 1 1 ON  29
eH_9       2.081240e-02                 1 1 ON  30
  </optVariables>
eH
Array
ud
Array
uu
Array
   Restore the number of walkers to 1, removing 0 walkers.
</opt>
</optimization-report>
  QMC Execution time = 2.9466e-01 secs
  Reusing QMCFixedSampleLinearOptimize
 Using QMCCostFunction::QMCCostFunction
 Using Default Cost Function: Cost = <|E-E_ff|^2>

=========================================================
  Start QMCFixedSampleLinearOptimize
  File Root H4-descent.s098 append = no 
=========================================================
  Skip QMCDriver::putQMCInfo 
  Resetting Properties of the walkers 1 x 14
Omega from input file: 0.0000e+00
Current collection step: -1
Target: generalized variational principle

=========================================================
  Start VMC
  File Root H4-descent.s098 append = no 
=========================================================
Using existing walkers 
  Resetting Properties of the walkers 1 x 14

<vmc function="put">
  qmc_counter=98  my_counter=0
  time step      = 5.0000e-02
  blocks         = 200
  steps          = 50
  substeps       = 1
  current        = 0
  target samples = 1.0000e+04
  walkers/mpi    = 1

  stepsbetweensamples = 1
<parameter name="blocks" condition="int">200</parameter>
<parameter name="blocks_between_recompute" condition="int">0</parameter>
<parameter name="check_properties" condition="int">100</parameter>
<parameter name="checkproperties" condition="int">100</parameter>
<parameter name="current" condition="int">0</parameter>
<parameter name="dmcwalkersperthread" condition="real">1.0000e+04</parameter>
<parameter name="fermionicweight" condition="real">1.0000e-04</parameter>
<parameter name="jastrowweight" condition="real">0.0000e+00</parameter>
<parameter name="maxcpusecs" condition="real">3.6000e+05</parameter>
<parameter name="mg_beta" condition="real">0.0000e+00</parameter>
<parameter name="mg_gamma" condition="real">0.0000e+00</parameter>
<parameter name="modifiedguiding" condition="string">ParameterDerivativeAdjusted</parameter>
<parameter name="orboptweight" condition="real">0.0000e+00</parameter>
<parameter name="record_configs" condition="int">0</parameter>
<parameter name="record_walkers" condition="int">1</parameter>
<parameter name="recordconfigs" condition="int">0</parameter>
<parameter name="recordwalkers" condition="int">1</parameter>
<parameter name="rewind" condition="int">0</parameter>
<parameter name="samples" condition="real">1.0000e+04</parameter>
<parameter name="samplesperthread" condition="real">1.0000e+04</parameter>
<parameter name="steps" condition="int">50</parameter>
<parameter name="stepsbetweensamples" condition="int">1</parameter>
<parameter name="store_configs" condition="int">0</parameter>
<parameter name="storeconfigs" condition="int">0</parameter>
<parameter name="sub_steps" condition="int">1</parameter>
<parameter name="substeps" condition="int">1</parameter>
<parameter name="tau" condition="au">5.0000e-02</parameter>
<parameter name="time_step" condition="au">5.0000e-02</parameter>
<parameter name="timestep" condition="au">5.0000e-02</parameter>
<parameter name="use_drift" condition="string">no</parameter>
<parameter name="usedrift" condition="string">no</parameter>
<parameter name="walkers" condition="int">1</parameter>
<parameter name="warmup_steps" condition="int">1000</parameter>
<parameter name="warmupsteps" condition="int">1000</parameter>
  DumpConfig==false Nothing (configurations, state) will be saved.
  Walker Samples are dumped every 1 steps.
</vmc>
    Restarting, cummulative properties:
      energy     = -2.0431e+00
      variance   = 0.0000e+00
      r2accepted = 1.0000e-10
      r2proposed = 1.0000e-10
  Set drift_modifier UNR parameter a = 1.0000e+00
  EstimatorManagerBase::add replace LocalEnergy estimator.
 Using QMCCostFunction::QMCCostFunction
 Using Default Cost Function: Cost = <|E-E_ff|^2>
  Set drift_modifier UNR parameter a = 1.0000e+00
  EstimatorManagerBase::add replace LocalEnergy estimator.
  EstimatorManagerBase::add replace LocalEnergy estimator.
entering engine_start function
<optimization-report>
<vmc stage="main" blocks="200">
  Cannot make clones again. Use existing 1 clones
  Initial partition of walkers 0 1 
Using ParameterDeriv Adjusted Guiding Function

  Using Particle by Particle moves
  Walker moves without drift
  Total Sample Size   =10000
  Walker distribution on root = 0 1 
  Anonymous Buffer size per walker : 1704 Bytes.
MEMORY increase 0 MB VMC::resetRun
====================================================
  SimpleFixedNodeBranch::finalize after a VMC block
    QMC counter        = 98
    time step          = 0.05
    reference energy   = -1.53763
    reference variance = -3.67699e-17
====================================================
  Execution time = 2.0493e-01
</vmc>
<opt stage="setup">
  <log>
     Reading configurations from h5FileRoot H4-descent.s098
  QMCCostFunction is created with 1 threads.
  Using Nonlocal PP in Opt: no
   Number of samples loaded to each thread : 10000 
Value of Filter Bool: false before_first_block_sample: true onDescentStep: true
Before engine_checkConfigurations
Double check filter inside engine_checkConfig: false
 w_tot 9.9988e+03
  VMC Eavg = -2.0985e+00
  VMC Evar = 1.8781e-01
  Total weights = 9.998771122e+03
Energy Average: -2.098518690e+00
Energy Variance: 1.878089436e-01
Weight Total: 2.000000000e+04
VGS Total: 1.999754224e+04
Energy Standard Deviation: 4.333692924e-01
Energy Standard Error: 4.333692924e-03
Target Function Average: 1.492581615e-01
Norm of Gradient Vector: 2.477622646e+00
After engine_checkConfig
  Execution time = 8.7188e-02
  </log>
</opt>
<opt stage="main" walkers="10000">
  <log>
Value of descent_num: 98
Number of Parameters: 31
Descent Number: 98
Finalization Descent Num (should be zero if not on last section): 0
Parameter Type step sizes:  TJF_2Body_eta=1.0000e-03 TJF_1Body_eta=1.0000e-033Body_eta1.0000e-04 F_eta=1.0000e-03 CI_eta=1.0000e-03 Orb_eta=1.0000e-03
Using AMSGrad
  Execution time = 2.9214e-01
  </log>
  <optVariables href="H4-descent.s098.opt.xml">
CSFcoeff_1 -3.755035e-01                3 1 ON  0
uu_0       5.824532e-01                 1 1 ON  1
uu_1       4.113434e-01                 1 1 ON  2
uu_2       2.835173e-01                 1 1 ON  3
uu_3       1.349687e-01                 1 1 ON  4
uu_4       3.594617e-02                 1 1 ON  5
uu_5       -2.906786e-02                1 1 ON  6
uu_6       -6.715954e-02                1 1 ON  7
uu_7       -4.300484e-02                1 1 ON  8
uu_8       -9.554672e-03                1 1 ON  9
uu_9       7.588201e-03                 1 1 ON  10
ud_0       8.957425e-01                 1 1 ON  11
ud_1       5.781597e-01                 1 1 ON  12
ud_2       3.515563e-01                 1 1 ON  13
ud_3       1.995516e-01                 1 1 ON  14
ud_4       1.122388e-01                 1 1 ON  15
ud_5       3.692532e-02                 1 1 ON  16
ud_6       3.679140e-02                 1 1 ON  17
ud_7       4.242535e-02                 1 1 ON  18
ud_8       7.266971e-02                 1 1 ON  19
ud_9       3.998802e-02                 1 1 ON  20
eH_0       3.202336e-02                 1 1 ON  21
eH_1       4.964118e-02                 1 1 ON  22
eH_2       -1.140684e-01                1 1 ON  23
eH_3       -8.342834e-02                1 1 ON  24
eH_4       -1.213899e-01                1 1 ON  25
eH_5       -7.852188e-02                1 1 ON  26
eH_6       -2.973999e-02                1 1 ON  27
eH_7       1.362985e-02                 1 1 ON  28
eH_8       4.390274e-02                 1 1 ON  29
eH_9       2.029546e-02                 1 1 ON  30
  </optVariables>
eH
Array
ud
Array
uu
Array
   Restore the number of walkers to 1, removing 0 walkers.
</opt>
</optimization-report>
  QMC Execution time = 2.9238e-01 secs
  Reusing QMCFixedSampleLinearOptimize
 Using QMCCostFunction::QMCCostFunction
 Using Default Cost Function: Cost = <|E-E_ff|^2>

=========================================================
  Start QMCFixedSampleLinearOptimize
  File Root H4-descent.s099 append = no 
=========================================================
  Skip QMCDriver::putQMCInfo 
  Resetting Properties of the walkers 1 x 14
Omega from input file: 0.0000e+00
Current collection step: -1
Target: generalized variational principle

=========================================================
  Start VMC
  File Root H4-descent.s099 append = no 
=========================================================
Using existing walkers 
  Resetting Properties of the walkers 1 x 14

<vmc function="put">
  qmc_counter=99  my_counter=0
  time step      = 5.0000e-02
  blocks         = 200
  steps          = 50
  substeps       = 1
  current        = 0
  target samples = 1.0000e+04
  walkers/mpi    = 1

  stepsbetweensamples = 1
<parameter name="blocks" condition="int">200</parameter>
<parameter name="blocks_between_recompute" condition="int">0</parameter>
<parameter name="check_properties" condition="int">100</parameter>
<parameter name="checkproperties" condition="int">100</parameter>
<parameter name="current" condition="int">0</parameter>
<parameter name="dmcwalkersperthread" condition="real">1.0000e+04</parameter>
<parameter name="fermionicweight" condition="real">1.0000e-04</parameter>
<parameter name="jastrowweight" condition="real">0.0000e+00</parameter>
<parameter name="maxcpusecs" condition="real">3.6000e+05</parameter>
<parameter name="mg_beta" condition="real">0.0000e+00</parameter>
<parameter name="mg_gamma" condition="real">0.0000e+00</parameter>
<parameter name="modifiedguiding" condition="string">ParameterDerivativeAdjusted</parameter>
<parameter name="orboptweight" condition="real">0.0000e+00</parameter>
<parameter name="record_configs" condition="int">0</parameter>
<parameter name="record_walkers" condition="int">1</parameter>
<parameter name="recordconfigs" condition="int">0</parameter>
<parameter name="recordwalkers" condition="int">1</parameter>
<parameter name="rewind" condition="int">0</parameter>
<parameter name="samples" condition="real">1.0000e+04</parameter>
<parameter name="samplesperthread" condition="real">1.0000e+04</parameter>
<parameter name="steps" condition="int">50</parameter>
<parameter name="stepsbetweensamples" condition="int">1</parameter>
<parameter name="store_configs" condition="int">0</parameter>
<parameter name="storeconfigs" condition="int">0</parameter>
<parameter name="sub_steps" condition="int">1</parameter>
<parameter name="substeps" condition="int">1</parameter>
<parameter name="tau" condition="au">5.0000e-02</parameter>
<parameter name="time_step" condition="au">5.0000e-02</parameter>
<parameter name="timestep" condition="au">5.0000e-02</parameter>
<parameter name="use_drift" condition="string">no</parameter>
<parameter name="usedrift" condition="string">no</parameter>
<parameter name="walkers" condition="int">1</parameter>
<parameter name="warmup_steps" condition="int">1000</parameter>
<parameter name="warmupsteps" condition="int">1000</parameter>
  DumpConfig==false Nothing (configurations, state) will be saved.
  Walker Samples are dumped every 1 steps.
</vmc>
    Restarting, cummulative properties:
      energy     = -2.0380e+00
      variance   = 0.0000e+00
      r2accepted = 1.0000e-10
      r2proposed = 1.0000e-10
  Set drift_modifier UNR parameter a = 1.0000e+00
  EstimatorManagerBase::add replace LocalEnergy estimator.
 Using QMCCostFunction::QMCCostFunction
 Using Default Cost Function: Cost = <|E-E_ff|^2>
  Set drift_modifier UNR parameter a = 1.0000e+00
  EstimatorManagerBase::add replace LocalEnergy estimator.
  EstimatorManagerBase::add replace LocalEnergy estimator.
entering engine_start function
<optimization-report>
<vmc stage="main" blocks="200">
  Cannot make clones again. Use existing 1 clones
  Initial partition of walkers 0 1 
Using ParameterDeriv Adjusted Guiding Function

  Using Particle by Particle moves
  Walker moves without drift
  Total Sample Size   =10000
  Walker distribution on root = 0 1 
  Anonymous Buffer size per walker : 1704 Bytes.
MEMORY increase 0 MB VMC::resetRun
====================================================
  SimpleFixedNodeBranch::finalize after a VMC block
    QMC counter        = 99
    time step          = 0.05
    reference energy   = -2.26834
    reference variance = 3.4869e-16
====================================================
  Execution time = 2.0622e-01
</vmc>
<opt stage="setup">
  <log>
     Reading configurations from h5FileRoot H4-descent.s099
  QMCCostFunction is created with 1 threads.
  Using Nonlocal PP in Opt: no
   Number of samples loaded to each thread : 10000 
Value of Filter Bool: false before_first_block_sample: true onDescentStep: true
Before engine_checkConfigurations
Double check filter inside engine_checkConfig: false
 w_tot 9.9981e+03
  VMC Eavg = -2.1618e+00
  VMC Evar = 1.9820e-01
  Total weights = 9.998097195e+03
Energy Average: -2.161828096e+00
Energy Variance: 1.973478505e-01
Weight Total: 2.000000000e+04
VGS Total: 1.999619439e+04
Energy Standard Deviation: 4.442385063e-01
Energy Standard Error: 4.442385063e-03
Target Function Average: 4.181461020e-01
Norm of Gradient Vector: 5.305436321e+00
After engine_checkConfig
  Execution time = 8.6687e-02
  </log>
</opt>
<opt stage="main" walkers="10000">
  <log>
Value of descent_num: 99
Number of Parameters: 31
Descent Number: 99
Finalization Descent Num (should be zero if not on last section): 0
Parameter Type step sizes:  TJF_2Body_eta=1.0000e-03 TJF_1Body_eta=1.0000e-033Body_eta1.0000e-04 F_eta=1.0000e-03 CI_eta=1.0000e-03 Orb_eta=1.0000e-03
Using AMSGrad
  Execution time = 2.9293e-01
  </log>
  <optVariables href="H4-descent.s099.opt.xml">
CSFcoeff_1 -3.745068e-01                3 1 ON  0
uu_0       5.821601e-01                 1 1 ON  1
uu_1       4.115667e-01                 1 1 ON  2
uu_2       2.839199e-01                 1 1 ON  3
uu_3       1.349262e-01                 1 1 ON  4
uu_4       3.599568e-02                 1 1 ON  5
uu_5       -2.902896e-02                1 1 ON  6
uu_6       -6.715425e-02                1 1 ON  7
uu_7       -4.292560e-02                1 1 ON  8
uu_8       -9.875917e-03                1 1 ON  9
uu_9       7.119159e-03                 1 1 ON  10
ud_0       8.956006e-01                 1 1 ON  11
ud_1       5.777016e-01                 1 1 ON  12
ud_2       3.515275e-01                 1 1 ON  13
ud_3       2.002099e-01                 1 1 ON  14
ud_4       1.119899e-01                 1 1 ON  15
ud_5       3.669051e-02                 1 1 ON  16
ud_6       3.690285e-02                 1 1 ON  17
ud_7       4.265549e-02                 1 1 ON  18
ud_8       7.267875e-02                 1 1 ON  19
ud_9       3.992530e-02                 1 1 ON  20
eH_0       3.175489e-02                 1 1 ON  21
eH_1       4.962230e-02                 1 1 ON  22
eH_2       -1.144822e-01                1 1 ON  23
eH_3       -8.287907e-02                1 1 ON  24
eH_4       -1.216922e-01                1 1 ON  25
eH_5       -7.856805e-02                1 1 ON  26
eH_6       -2.920847e-02                1 1 ON  27
eH_7       1.360534e-02                 1 1 ON  28
eH_8       4.403379e-02                 1 1 ON  29
eH_9       1.986171e-02                 1 1 ON  30
  </optVariables>
eH
Array
ud
Array
uu
Array
   Restore the number of walkers to 1, removing 0 walkers.
</opt>
</optimization-report>
  QMC Execution time = 2.9316e-01 secs
  Total Execution time = 2.9357e+01 secs

=========================================================
  A new xml input file : H4-descent.s099.cont.xml
