Rank =    0  Free Memory =  2852 MB
  Input file(s): optm-descent.xml 

=====================================================
                    QMCPACK 3.7.9

       (c) Copyright 2003-  QMCPACK developers

                    Please cite:
 J. Kim et al. J. Phys. Cond. Mat. 30 195901 (2018)
      https://doi.org/10.1088/1361-648X/aab9c3

  Git branch: gvp
  Last git commit: f13eaba26d553d060e4d37a84a67d74cf1e6c0d8-dirty
  Last git commit date: Wed Aug 18 14:32:28 2021 -0700
  Last git commit subject: off by one bug fixed, temporary Jastrow fix
=====================================================
  Global options 

  Total number of MPI ranks = 1
  Number of MPI groups      = 1
  MPI group ID              = 0
  Number of ranks in group  = 1
  MPI ranks per node        = 1
  OMP 1st level threads     = 1
  OMP nested threading disabled or only 1 thread on the 2nd level

  Precision used in this calculation, see definitions in the manual:
  Base precision      = double
  Full precision      = double

  Structure-of-arrays (SoA) optimization enabled

  Input XML = optm-descent.xml

  Project = H4-descent
  date    = 2021-08-18 15:44:53 PDT
  host    = connie-Thelio

 Random Number
 -------------
  Offset for the random number seeds from input file (mod 1024): 651

  Range of prime numbers to use as seeds over processors and threads = 4877-4889


 Particle Set 
 ------------
  Name: e
  All the species have the same mass 1
  Particle set size: 4

 Particle Set 
 ------------
  Name: ion0
  All the species have the same mass 1
  Particle set size: 4

 Wavefunction setup: 
 ------------------- 
  Name: psi0
  Created SPOSet builder named 'LCAOBSet' of type molecularorbital
  LCAO: SoaAtomicBasisSet<MultiQuintic,0>
  AO BasisSet for H
   Angular momentum expanded in cartesian functions x^lx y^ly z^lz according to Gamess
Using log grid with default values: ri = 1e-06 rf = 100 npts = 1001
   R(n,l,m,s) 0 0 0 0
Expanding Ylm (angular function) according to Gamess using cartesian gaussians
Adding 1 cartesian gaussian orbitals for l= 0
  Setting cutoff radius 8.62979

   Maximum Angular Momentum  = 0
   Number of Radial functors = 1
   Basis size                = 1

Creating SPOSet in SlaterDetBuilder::put(xmlNodePtr cur).
spo_name = spo-up
  Building SPOSet 'spo-up' with 'LCAOBSet' basis set.
Creating SPOSet in SlaterDetBuilder::put(xmlNodePtr cur).
spo_name = spo-dn
  Building SPOSet 'spo-dn' with 'LCAOBSet' basis set.
Using Bryan's algorithm for MultiSlaterDeterminant expansion. 
Creating base determinant (up) for MSD expansion. 
Creating base determinant (down) for MSD expansion. 
Found determinant list. 
Reading CSFs.
Found 2 terms in the MSD expansion.
Norm of ci vector (sum of ci^2): 0.638005
Norm of qchem ci vector (sum of qchem_ci^2): 0.990143
Found 2 unique up determinants.
Found 2 unique down determinants.
Number of terms in pairs array: 1
Number of terms in pairs array: 1
CI coefficients are optimizable. 
  FermionWF = MultiSlaterDeterminantFast

   Jastrow
   -------
    Name: J2   Type: Two-Body   Function: Bspline

    Radial function for species: u - u
     Number of parameters: 10
     Cusp: -0.25
     Cutoff radius: 10

     Name                        Value Type Recompute Use Index
     ---- ---------------------------- ---- --------- --- -----
     uu_0                 5.680176e-01    1         1  ON     0
     uu_1                 3.699138e-01    1         1  ON     1
     uu_2                 2.108829e-01    1         1  ON     2
     uu_3                 9.267632e-02    1         1  ON     3
     uu_4                 5.276940e-03    1         1  ON     4
     uu_5                -3.330962e-02    1         1  ON     5
     uu_6                -2.484192e-02    1         1  ON     6
     uu_7                 8.603361e-03    1         1  ON     7
     uu_8                 3.763565e-02    1         1  ON     8
     uu_9                 2.979626e-02    1         1  ON     9

    Radial function for species: u - d
     Number of parameters: 10
     Cusp: -5.000000e-01
     Cutoff radius: 1.000000e+01

     Name                        Value Type Recompute Use Index
     ---- ---------------------------- ---- --------- --- -----
     ud_0                 9.168016e-01    1         1  ON     0
     ud_1                 5.756625e-01    1         1  ON     1
     ud_2                 3.465443e-01    1         1  ON     2
     ud_3                 1.896617e-01    1         1  ON     3
     ud_4                 8.747532e-02    1         1  ON     4
     ud_5                 3.482162e-02    1         1  ON     5
     ud_6                 3.708930e-02    1         1  ON     6
     ud_7                 6.355172e-02    1         1  ON     7
     ud_8                 7.720516e-02    1         1  ON     8
     ud_9                 5.828843e-02    1         1  ON     9


   Jastrow
   -------
    Name: J1   Type: One-Body   Function: Bspline

    Radial function for element: H
     Number of parameters: 10
     Cusp: 1.000000e+00
     Cutoff radius: 5.000000e+00

     Name                        Value Type Recompute Use Index
     ---- ---------------------------- ---- --------- --- -----
     eH_0                 1.539994e-02    1         1  ON     0
     eH_1                 2.935596e-02    1         1  ON     1
     eH_2                -1.133046e-01    1         1  ON     2
     eH_3                -9.452275e-02    1         1  ON     3
     eH_4                -1.063167e-01    1         1  ON     4
     eH_5                -7.820047e-02    1         1  ON     5
     eH_6                -3.640043e-02    1         1  ON     6
     eH_7                -6.827574e-03    1         1  ON     7
     eH_8                 8.345458e-03    1         1  ON     8
     eH_9                 4.849582e-03    1         1  ON     9

  QMCHamiltonian::addOperator Kinetic to H, physical Hamiltonian 
  QMCHamiltonian::addOperator ElecElec to H, physical Hamiltonian 
QMCHamiltonian::addOperatorType added type coulomb named ElecElec
  QMCHamiltonian::addOperator IonElec to H, physical Hamiltonian 
QMCHamiltonian::addOperatorType added type coulomb named IonElec
  QMCHamiltonian::addOperator IonIon to H, physical Hamiltonian 
QMCHamiltonian::addOperatorType added type coulomb named IonIon

  QMCHamiltonian::add2WalkerProperty added
    4 to P::PropertyList 
    0 to P::Collectables 
    starting Index of the observables in P::PropertyList = 10
ParticleSetPool::randomize 
  Initialization Execution time = 9.3546e-03 secs
=========================================================
 Summary of QMC systems 
=========================================================
ParticleSetPool has: 

  ParticleSet 'e' contains 4 particles :  u(2) d(2)

    u  1.0958951042e+00  5.1427708436e-01 -1.4428370103e+00
    u  6.0611124208e-01 -1.7216487456e-01 -7.7962973208e-01
    d -6.4575975825e-01  9.9108864642e-01  1.8564835946e-01
    d -7.5318592612e-02  2.7134132518e-01 -1.1765509155e+00

  Distance table for dissimilar particles (A-B):
    source: ion0  target: e
    Using structure-of-arrays (SoA) data layout
    Distance computations use open boundary conditions in 3D.

  Distance table for similar particles (A-A):
    source/target: e
    Using structure-of-arrays (SoA) data layout
    Distance computations use open boundary conditions in 3D.


  ParticleSet 'ion0' contains 4 particles :  H(4)

    H  0.0000000000e+00  0.0000000000e+00  0.0000000000e+00
    H  1.8897259877e+00  0.0000000000e+00  0.0000000000e+00
    H  0.0000000000e+00  0.0000000000e+00  2.8345889816e+00
    H  0.0000000000e+00  0.0000000000e+00  5.6691779632e+00

  Distance table for similar particles (A-A):
    source/target: ion0
    Using structure-of-arrays (SoA) data layout
    Distance computations use open boundary conditions in 3D.


  Hamiltonian h0
  Kinetic         Kinetic energy
  ElecElec        CoulombAB source=e

  IonElec         CoulombAA source/target ion0

  IonIon          CoulombAA source/target ion0


Loop execution max-interations = 100
Inside LM engine constructor, num_params is: 0 and _total_num_params is: 0

=========================================================
  Start QMCFixedSampleLinearOptimize
  File Root H4-descent.s000 append = no 
=========================================================
  Skip QMCDriver::putQMCInfo 
  Resetting Properties of the walkers 1 x 14
Omega from input file: 0.0000000000e+00
Current collection step: -1
Target: generalized variational principle
Omega from input file: 0.0000000000e+00
Current collection step: -1
Target: generalized variational principle
  Adding 1 walkers to 0 existing sets
  Total number of walkers: 1.0000000000e+00
  Total weight: 1.0000000000e+00

=========================================================
  Start VMC
  File Root H4-descent.s000 append = no 
=========================================================
Resetting walkers
  Using the current 1 walkers.
  Total number of walkers: 1.0000000000e+00
  Total weight: 1.0000000000e+00
  Resetting Properties of the walkers 1 x 14

<vmc function="put">
  qmc_counter=0  my_counter=0
  time step      = 5.0000000000e-02
  blocks         = 200
  steps          = 50
  substeps       = 1
  current        = 0
  target samples = 1.0000000000e+04
  walkers/mpi    = 1

  stepsbetweensamples = 1
<parameter name="blocks" condition="int">200</parameter>
<parameter name="blocks_between_recompute" condition="int">0</parameter>
<parameter name="check_properties" condition="int">100</parameter>
<parameter name="checkproperties" condition="int">100</parameter>
<parameter name="current" condition="int">0</parameter>
<parameter name="dmcwalkersperthread" condition="real">1.0000000000e+04</parameter>
<parameter name="fermionicweight" condition="real">1.0000000000e-04</parameter>
<parameter name="jastrowweight" condition="real">0.0000000000e+00</parameter>
<parameter name="maxcpusecs" condition="real">3.6000000000e+05</parameter>
<parameter name="mg_beta" condition="real">0.0000000000e+00</parameter>
<parameter name="mg_gamma" condition="real">0.0000000000e+00</parameter>
<parameter name="modifiedguiding" condition="string">ParameterDerivativeAdjusted</parameter>
<parameter name="orboptweight" condition="real">0.0000000000e+00</parameter>
<parameter name="record_configs" condition="int">0</parameter>
<parameter name="record_walkers" condition="int">1</parameter>
<parameter name="recordconfigs" condition="int">0</parameter>
<parameter name="recordwalkers" condition="int">1</parameter>
<parameter name="rewind" condition="int">0</parameter>
<parameter name="samples" condition="real">1.0000000000e+04</parameter>
<parameter name="samplesperthread" condition="real">1.0000000000e+04</parameter>
<parameter name="steps" condition="int">50</parameter>
<parameter name="stepsbetweensamples" condition="int">1</parameter>
<parameter name="store_configs" condition="int">0</parameter>
<parameter name="storeconfigs" condition="int">0</parameter>
<parameter name="sub_steps" condition="int">1</parameter>
<parameter name="substeps" condition="int">1</parameter>
<parameter name="tau" condition="au">5.0000000000e-02</parameter>
<parameter name="time_step" condition="au">5.0000000000e-02</parameter>
<parameter name="timestep" condition="au">5.0000000000e-02</parameter>
<parameter name="use_drift" condition="string">no</parameter>
<parameter name="usedrift" condition="string">no</parameter>
<parameter name="walkers" condition="int">1</parameter>
<parameter name="warmup_steps" condition="int">1000</parameter>
<parameter name="warmupsteps" condition="int">1000</parameter>
  DumpConfig==false Nothing (configurations, state) will be saved.
  Walker Samples are dumped every 1 steps.
</vmc>
  Set drift_modifier UNR parameter a = 1.0000000000e+00
  EstimatorManagerBase::add replace LocalEnergy estimator.
 Using QMCCostFunction::QMCCostFunction
 Using Default Cost Function: Cost = <|E-E_ff|^2>
  Set drift_modifier UNR parameter a = 1.0000000000e+00
  EstimatorManagerBase::add replace LocalEnergy estimator.
entering engine_start function
<optimization-report>
<vmc stage="main" blocks="200">
  Initial partition of walkers 0 1 
Using ParameterDeriv Adjusted Guiding Function

  Using Particle by Particle moves
  Walker moves without drift
  Total Sample Size   =10000
  Walker distribution on root = 0 1 
  Anonymous Buffer size per walker : 1704 Bytes.
MEMORY increase 0 MB VMC::resetRun
====================================================
  SimpleFixedNodeBranch::finalize after a VMC block
    QMC counter        = 0
    time step          = 0.05
    reference energy   = -2.15273
    reference variance = 1.01631e-17
====================================================
  Execution time = 2.2000e-01
</vmc>
<opt stage="setup">
  <log>
     Reading configurations from h5FileRoot H4-descent.s000
  QMCCostFunction is created with 1 threads.
  Using Nonlocal PP in Opt: no
   Number of samples loaded to each thread : 10000 
Value of Filter Bool: false before_first_block_sample: true onDescentStep: true
Before engine_checkConfigurations
Double check filter inside engine_checkConfig: false
 w_tot 9.9961e+03
  VMC Eavg = -1.8588e+00
  VMC Evar = 3.6463e-01
  Total weights = 9.996080421e+03
Energy Average: -1.858785948e+00
Energy Variance: 3.641583654e-01
Weight Total: 2.000000000e+04
VGS Total: 1.999216084e+04
Energy Standard Deviation: 6.034553550e-01
Energy Standard Error: 6.034553550e-03
Target Function Average: 5.605844412e-01
Norm of Gradient Vector: 7.846500831e+00
After engine_checkConfig
  Execution time = 8.9920e-02
  </log>
</opt>
<opt stage="main" walkers="10000">
  <log>
Value of descent_num: 0
Should only happen on first descent step
This is num_params_: 31
Number of Parameters: 31
Descent Number: 0
Finalization Descent Num (should be zero if not on last section): 0
Parameter Type step sizes:  TJF_2Body_eta=1.0000e-03 TJF_1Body_eta=1.0000e-033Body_eta1.0000e-04 F_eta=1.0000e-03 CI_eta=1.0000e-03 Orb_eta=1.0000e-03
Using Random
This is random alpha: 0.0000e+00 with sign: -1.0000e+00
This is random alpha: 0.0000e+00 with sign: -1.0000e+00
This is random alpha: 0.0000e+00 with sign: -1.0000e+00
This is random alpha: 0.0000e+00 with sign: -1.0000e+00
This is random alpha: 0.0000e+00 with sign: -1.0000e+00
This is random alpha: 0.0000e+00 with sign: 1.0000e+00
This is random alpha: 0.0000e+00 with sign: 1.0000e+00
This is random alpha: 0.0000e+00 with sign: -1.0000e+00
This is random alpha: 0.0000e+00 with sign: 1.0000e+00
This is random alpha: 0.0000e+00 with sign: 1.0000e+00
This is random alpha: 0.0000e+00 with sign: 1.0000e+00
This is random alpha: 0.0000e+00 with sign: -1.0000e+00
This is random alpha: 0.0000e+00 with sign: -1.0000e+00
This is random alpha: 0.0000e+00 with sign: 1.0000e+00
This is random alpha: 0.0000e+00 with sign: -1.0000e+00
This is random alpha: 0.0000e+00 with sign: -1.0000e+00
This is random alpha: 0.0000e+00 with sign: 1.0000e+00
This is random alpha: 0.0000e+00 with sign: 1.0000e+00
This is random alpha: 0.0000e+00 with sign: 1.0000e+00
This is random alpha: 0.0000e+00 with sign: 1.0000e+00
This is random alpha: 0.0000e+00 with sign: 1.0000e+00
This is random alpha: 0.0000e+00 with sign: -1.0000e+00
This is random alpha: 0.0000e+00 with sign: 1.0000e+00
This is random alpha: 0.0000e+00 with sign: -1.0000e+00
This is random alpha: 0.0000e+00 with sign: 1.0000e+00
This is random alpha: 0.0000e+00 with sign: 1.0000e+00
This is random alpha: 0.0000e+00 with sign: 1.0000e+00
This is random alpha: 0.0000e+00 with sign: -1.0000e+00
This is random alpha: 0.0000e+00 with sign: -1.0000e+00
This is random alpha: 0.0000e+00 with sign: -1.0000e+00
This is random alpha: 0.0000e+00 with sign: 1.0000e+00
  Execution time = 3.1001e-01
  </log>
  <optVariables href="H4-descent.s000.opt.xml">
CSFcoeff_1 -5.205664e-01                3 1 ON  0
uu_0       5.680176e-01                 1 1 ON  1
uu_1       3.699138e-01                 1 1 ON  2
uu_2       2.108829e-01                 1 1 ON  3
uu_3       9.267632e-02                 1 1 ON  4
uu_4       5.276940e-03                 1 1 ON  5
uu_5       -3.330962e-02                1 1 ON  6
uu_6       -2.484192e-02                1 1 ON  7
uu_7       8.603361e-03                 1 1 ON  8
uu_8       3.763565e-02                 1 1 ON  9
uu_9       2.979626e-02                 1 1 ON  10
ud_0       9.168016e-01                 1 1 ON  11
ud_1       5.756625e-01                 1 1 ON  12
ud_2       3.465443e-01                 1 1 ON  13
ud_3       1.896617e-01                 1 1 ON  14
ud_4       8.747532e-02                 1 1 ON  15
ud_5       3.482162e-02                 1 1 ON  16
ud_6       3.708930e-02                 1 1 ON  17
ud_7       6.355172e-02                 1 1 ON  18
ud_8       7.720516e-02                 1 1 ON  19
ud_9       5.828843e-02                 1 1 ON  20
eH_0       1.539994e-02                 1 1 ON  21
eH_1       2.935596e-02                 1 1 ON  22
eH_2       -1.133046e-01                1 1 ON  23
eH_3       -9.452275e-02                1 1 ON  24
eH_4       -1.063167e-01                1 1 ON  25
eH_5       -7.820047e-02                1 1 ON  26
eH_6       -3.640043e-02                1 1 ON  27
eH_7       -6.827574e-03                1 1 ON  28
eH_8       8.345458e-03                 1 1 ON  29
eH_9       4.849582e-03                 1 1 ON  30
  </optVariables>
eH
Array
ud
Array
uu
Array
   Restore the number of walkers to 1, removing 0 walkers.
</opt>
</optimization-report>
  QMC Execution time = 3.1026e-01 secs
  Reusing QMCFixedSampleLinearOptimize
 Using QMCCostFunction::QMCCostFunction
 Using Default Cost Function: Cost = <|E-E_ff|^2>

=========================================================
  Start QMCFixedSampleLinearOptimize
  File Root H4-descent.s001 append = no 
=========================================================
  Skip QMCDriver::putQMCInfo 
  Resetting Properties of the walkers 1 x 14
Omega from input file: 0.0000e+00
Current collection step: -1
Target: generalized variational principle

=========================================================
  Start VMC
  File Root H4-descent.s001 append = no 
=========================================================
Using existing walkers 
  Resetting Properties of the walkers 1 x 14

<vmc function="put">
  qmc_counter=1  my_counter=0
  time step      = 5.0000e-02
  blocks         = 200
  steps          = 50
  substeps       = 1
  current        = 0
  target samples = 1.0000e+04
  walkers/mpi    = 1

  stepsbetweensamples = 1
<parameter name="blocks" condition="int">200</parameter>
<parameter name="blocks_between_recompute" condition="int">0</parameter>
<parameter name="check_properties" condition="int">100</parameter>
<parameter name="checkproperties" condition="int">100</parameter>
<parameter name="current" condition="int">0</parameter>
<parameter name="dmcwalkersperthread" condition="real">1.0000e+04</parameter>
<parameter name="fermionicweight" condition="real">1.0000e-04</parameter>
<parameter name="jastrowweight" condition="real">0.0000e+00</parameter>
<parameter name="maxcpusecs" condition="real">3.6000e+05</parameter>
<parameter name="mg_beta" condition="real">0.0000e+00</parameter>
<parameter name="mg_gamma" condition="real">0.0000e+00</parameter>
<parameter name="modifiedguiding" condition="string">ParameterDerivativeAdjusted</parameter>
<parameter name="orboptweight" condition="real">0.0000e+00</parameter>
<parameter name="record_configs" condition="int">0</parameter>
<parameter name="record_walkers" condition="int">1</parameter>
<parameter name="recordconfigs" condition="int">0</parameter>
<parameter name="recordwalkers" condition="int">1</parameter>
<parameter name="rewind" condition="int">0</parameter>
<parameter name="samples" condition="real">1.0000e+04</parameter>
<parameter name="samplesperthread" condition="real">1.0000e+04</parameter>
<parameter name="steps" condition="int">50</parameter>
<parameter name="stepsbetweensamples" condition="int">1</parameter>
<parameter name="store_configs" condition="int">0</parameter>
<parameter name="storeconfigs" condition="int">0</parameter>
<parameter name="sub_steps" condition="int">1</parameter>
<parameter name="substeps" condition="int">1</parameter>
<parameter name="tau" condition="au">5.0000e-02</parameter>
<parameter name="time_step" condition="au">5.0000e-02</parameter>
<parameter name="timestep" condition="au">5.0000e-02</parameter>
<parameter name="use_drift" condition="string">no</parameter>
<parameter name="usedrift" condition="string">no</parameter>
<parameter name="walkers" condition="int">1</parameter>
<parameter name="warmup_steps" condition="int">1000</parameter>
<parameter name="warmupsteps" condition="int">1000</parameter>
  DumpConfig==false Nothing (configurations, state) will be saved.
  Walker Samples are dumped every 1 steps.
</vmc>
    Restarting, cummulative properties:
      energy     = -2.1527e+00
      variance   = 0.0000e+00
      r2accepted = 1.0000e-10
      r2proposed = 1.0000e-10
  Set drift_modifier UNR parameter a = 1.0000e+00
  EstimatorManagerBase::add replace LocalEnergy estimator.
 Using QMCCostFunction::QMCCostFunction
 Using Default Cost Function: Cost = <|E-E_ff|^2>
  Set drift_modifier UNR parameter a = 1.0000e+00
  EstimatorManagerBase::add replace LocalEnergy estimator.
  EstimatorManagerBase::add replace LocalEnergy estimator.
entering engine_start function
<optimization-report>
<vmc stage="main" blocks="200">
  Cannot make clones again. Use existing 1 clones
  Initial partition of walkers 0 1 
Using ParameterDeriv Adjusted Guiding Function

  Using Particle by Particle moves
  Walker moves without drift
  Total Sample Size   =10000
  Walker distribution on root = 0 1 
  Anonymous Buffer size per walker : 1704 Bytes.
MEMORY increase 0 MB VMC::resetRun
====================================================
  SimpleFixedNodeBranch::finalize after a VMC block
    QMC counter        = 1
    time step          = 0.05
    reference energy   = -2.50193
    reference variance = -2.61768e-16
====================================================
  Execution time = 2.1027e-01
</vmc>
<opt stage="setup">
  <log>
     Reading configurations from h5FileRoot H4-descent.s001
  QMCCostFunction is created with 1 threads.
  Using Nonlocal PP in Opt: no
   Number of samples loaded to each thread : 10000 
Value of Filter Bool: false before_first_block_sample: true onDescentStep: true
Before engine_checkConfigurations
Double check filter inside engine_checkConfig: false
 w_tot 9.9990e+03
  VMC Eavg = -2.0663e+00
  VMC Evar = 1.6232e-01
  Total weights = 9.999001390e+03
Energy Average: -2.066300790e+00
Energy Variance: 1.623256989e-01
Weight Total: 2.000000000e+04
VGS Total: 1.999800278e+04
Energy Standard Deviation: 4.028966355e-01
Energy Standard Error: 4.028966355e-03
Target Function Average: 1.161191559e-01
Norm of Gradient Vector: 1.736244093e+00
After engine_checkConfig
  Execution time = 8.7239e-02
  </log>
</opt>
<opt stage="main" walkers="10000">
  <log>
Value of descent_num: 1
Number of Parameters: 31
Descent Number: 1
Finalization Descent Num (should be zero if not on last section): 0
Parameter Type step sizes:  TJF_2Body_eta=1.0000e-03 TJF_1Body_eta=1.0000e-033Body_eta1.0000e-04 F_eta=1.0000e-03 CI_eta=1.0000e-03 Orb_eta=1.0000e-03
Using Random
This is random alpha: 0.0000e+00 with sign: -1.0000e+00
This is random alpha: 0.0000e+00 with sign: 1.0000e+00
This is random alpha: 0.0000e+00 with sign: 1.0000e+00
This is random alpha: 0.0000e+00 with sign: -1.0000e+00
This is random alpha: 0.0000e+00 with sign: -1.0000e+00
This is random alpha: 0.0000e+00 with sign: -1.0000e+00
This is random alpha: 0.0000e+00 with sign: 1.0000e+00
This is random alpha: 0.0000e+00 with sign: 1.0000e+00
This is random alpha: 0.0000e+00 with sign: -1.0000e+00
This is random alpha: 0.0000e+00 with sign: 1.0000e+00
This is random alpha: 0.0000e+00 with sign: 1.0000e+00
This is random alpha: 0.0000e+00 with sign: 1.0000e+00
This is random alpha: 0.0000e+00 with sign: 1.0000e+00
This is random alpha: 0.0000e+00 with sign: 1.0000e+00
This is random alpha: 0.0000e+00 with sign: 1.0000e+00
This is random alpha: 0.0000e+00 with sign: 1.0000e+00
This is random alpha: 0.0000e+00 with sign: -1.0000e+00
This is random alpha: 0.0000e+00 with sign: -1.0000e+00
This is random alpha: 0.0000e+00 with sign: -1.0000e+00
This is random alpha: 0.0000e+00 with sign: -1.0000e+00
This is random alpha: 0.0000e+00 with sign: -1.0000e+00
This is random alpha: 0.0000e+00 with sign: 1.0000e+00
This is random alpha: 0.0000e+00 with sign: 1.0000e+00
This is random alpha: 0.0000e+00 with sign: -1.0000e+00
This is random alpha: 0.0000e+00 with sign: -1.0000e+00
This is random alpha: 0.0000e+00 with sign: 1.0000e+00
This is random alpha: 0.0000e+00 with sign: 1.0000e+00
This is random alpha: 0.0000e+00 with sign: 1.0000e+00
This is random alpha: 0.0000e+00 with sign: -1.0000e+00
This is random alpha: 0.0000e+00 with sign: -1.0000e+00
This is random alpha: 0.0000e+00 with sign: 1.0000e+00
  Execution time = 2.9757e-01
  </log>
  <optVariables href="H4-descent.s001.opt.xml">
CSFcoeff_1 -5.205664e-01                3 1 ON  0
uu_0       5.680176e-01                 1 1 ON  1
uu_1       3.699138e-01                 1 1 ON  2
uu_2       2.108829e-01                 1 1 ON  3
uu_3       9.267632e-02                 1 1 ON  4
uu_4       5.276940e-03                 1 1 ON  5
uu_5       -3.330962e-02                1 1 ON  6
uu_6       -2.484192e-02                1 1 ON  7
uu_7       8.603361e-03                 1 1 ON  8
uu_8       3.763565e-02                 1 1 ON  9
uu_9       2.979626e-02                 1 1 ON  10
ud_0       9.168016e-01                 1 1 ON  11
ud_1       5.756625e-01                 1 1 ON  12
ud_2       3.465443e-01                 1 1 ON  13
ud_3       1.896617e-01                 1 1 ON  14
ud_4       8.747532e-02                 1 1 ON  15
ud_5       3.482162e-02                 1 1 ON  16
ud_6       3.708930e-02                 1 1 ON  17
ud_7       6.355172e-02                 1 1 ON  18
ud_8       7.720516e-02                 1 1 ON  19
ud_9       5.828843e-02                 1 1 ON  20
eH_0       1.539994e-02                 1 1 ON  21
eH_1       2.935596e-02                 1 1 ON  22
eH_2       -1.133046e-01                1 1 ON  23
eH_3       -9.452275e-02                1 1 ON  24
eH_4       -1.063167e-01                1 1 ON  25
eH_5       -7.820047e-02                1 1 ON  26
eH_6       -3.640043e-02                1 1 ON  27
eH_7       -6.827574e-03                1 1 ON  28
eH_8       8.345458e-03                 1 1 ON  29
eH_9       4.849582e-03                 1 1 ON  30
  </optVariables>
eH
Array
ud
Array
uu
Array
   Restore the number of walkers to 1, removing 0 walkers.
</opt>
</optimization-report>
  QMC Execution time = 2.9780e-01 secs
  Reusing QMCFixedSampleLinearOptimize
 Using QMCCostFunction::QMCCostFunction
 Using Default Cost Function: Cost = <|E-E_ff|^2>

=========================================================
  Start QMCFixedSampleLinearOptimize
  File Root H4-descent.s002 append = no 
=========================================================
  Skip QMCDriver::putQMCInfo 
  Resetting Properties of the walkers 1 x 14
Omega from input file: 0.0000e+00
Current collection step: -1
Target: generalized variational principle

=========================================================
  Start VMC
  File Root H4-descent.s002 append = no 
=========================================================
Using existing walkers 
  Resetting Properties of the walkers 1 x 14

<vmc function="put">
  qmc_counter=2  my_counter=0
  time step      = 5.0000e-02
  blocks         = 200
  steps          = 50
  substeps       = 1
  current        = 0
  target samples = 1.0000e+04
  walkers/mpi    = 1

  stepsbetweensamples = 1
<parameter name="blocks" condition="int">200</parameter>
<parameter name="blocks_between_recompute" condition="int">0</parameter>
<parameter name="check_properties" condition="int">100</parameter>
<parameter name="checkproperties" condition="int">100</parameter>
<parameter name="current" condition="int">0</parameter>
<parameter name="dmcwalkersperthread" condition="real">1.0000e+04</parameter>
<parameter name="fermionicweight" condition="real">1.0000e-04</parameter>
<parameter name="jastrowweight" condition="real">0.0000e+00</parameter>
<parameter name="maxcpusecs" condition="real">3.6000e+05</parameter>
<parameter name="mg_beta" condition="real">0.0000e+00</parameter>
<parameter name="mg_gamma" condition="real">0.0000e+00</parameter>
<parameter name="modifiedguiding" condition="string">ParameterDerivativeAdjusted</parameter>
<parameter name="orboptweight" condition="real">0.0000e+00</parameter>
<parameter name="record_configs" condition="int">0</parameter>
<parameter name="record_walkers" condition="int">1</parameter>
<parameter name="recordconfigs" condition="int">0</parameter>
<parameter name="recordwalkers" condition="int">1</parameter>
<parameter name="rewind" condition="int">0</parameter>
<parameter name="samples" condition="real">1.0000e+04</parameter>
<parameter name="samplesperthread" condition="real">1.0000e+04</parameter>
<parameter name="steps" condition="int">50</parameter>
<parameter name="stepsbetweensamples" condition="int">1</parameter>
<parameter name="store_configs" condition="int">0</parameter>
<parameter name="storeconfigs" condition="int">0</parameter>
<parameter name="sub_steps" condition="int">1</parameter>
<parameter name="substeps" condition="int">1</parameter>
<parameter name="tau" condition="au">5.0000e-02</parameter>
<parameter name="time_step" condition="au">5.0000e-02</parameter>
<parameter name="timestep" condition="au">5.0000e-02</parameter>
<parameter name="use_drift" condition="string">no</parameter>
<parameter name="usedrift" condition="string">no</parameter>
<parameter name="walkers" condition="int">1</parameter>
<parameter name="warmup_steps" condition="int">1000</parameter>
<parameter name="warmupsteps" condition="int">1000</parameter>
  DumpConfig==false Nothing (configurations, state) will be saved.
  Walker Samples are dumped every 1 steps.
</vmc>
    Restarting, cummulative properties:
      energy     = -2.3273e+00
      variance   = 0.0000e+00
      r2accepted = 1.0000e-10
      r2proposed = 1.0000e-10
  Set drift_modifier UNR parameter a = 1.0000e+00
  EstimatorManagerBase::add replace LocalEnergy estimator.
 Using QMCCostFunction::QMCCostFunction
 Using Default Cost Function: Cost = <|E-E_ff|^2>
  Set drift_modifier UNR parameter a = 1.0000e+00
  EstimatorManagerBase::add replace LocalEnergy estimator.
  EstimatorManagerBase::add replace LocalEnergy estimator.
entering engine_start function
<optimization-report>
<vmc stage="main" blocks="200">
  Cannot make clones again. Use existing 1 clones
  Initial partition of walkers 0 1 
Using ParameterDeriv Adjusted Guiding Function

  Using Particle by Particle moves
  Walker moves without drift
  Total Sample Size   =10000
  Walker distribution on root = 0 1 
  Anonymous Buffer size per walker : 1704 Bytes.
MEMORY increase 0 MB VMC::resetRun
====================================================
  SimpleFixedNodeBranch::finalize after a VMC block
    QMC counter        = 2
    time step          = 0.05
    reference energy   = -2.63231
    reference variance = -3.4189e-16
====================================================
  Execution time = 2.0929e-01
</vmc>
<opt stage="setup">
  <log>
     Reading configurations from h5FileRoot H4-descent.s002
  QMCCostFunction is created with 1 threads.
  Using Nonlocal PP in Opt: no
   Number of samples loaded to each thread : 10000 
Value of Filter Bool: false before_first_block_sample: true onDescentStep: true
Before engine_checkConfigurations
Double check filter inside engine_checkConfig: false
 w_tot 9.9989e+03
  VMC Eavg = -2.0813e+00
  VMC Evar = 1.7036e-01
  Total weights = 9.998857755e+03
Energy Average: -2.081276982e+00
Energy Variance: 1.703648651e-01
Weight Total: 2.000000000e+04
VGS Total: 1.999771551e+04
Energy Standard Deviation: 4.127527893e-01
Energy Standard Error: 4.127527893e-03
Target Function Average: 9.866485646e-02
Norm of Gradient Vector: 1.488639852e+00
After engine_checkConfig
  Execution time = 8.6187e-02
  </log>
</opt>
<opt stage="main" walkers="10000">
  <log>
Value of descent_num: 2
Number of Parameters: 31
Descent Number: 2
Finalization Descent Num (should be zero if not on last section): 0
Parameter Type step sizes:  TJF_2Body_eta=1.0000e-03 TJF_1Body_eta=1.0000e-033Body_eta1.0000e-04 F_eta=1.0000e-03 CI_eta=1.0000e-03 Orb_eta=1.0000e-03
Using Random
This is random alpha: 0.0000e+00 with sign: -1.0000e+00
This is random alpha: 0.0000e+00 with sign: 1.0000e+00
This is random alpha: 0.0000e+00 with sign: 1.0000e+00
This is random alpha: 0.0000e+00 with sign: 1.0000e+00
This is random alpha: 0.0000e+00 with sign: -1.0000e+00
This is random alpha: 0.0000e+00 with sign: -1.0000e+00
This is random alpha: 0.0000e+00 with sign: 1.0000e+00
This is random alpha: 0.0000e+00 with sign: 1.0000e+00
This is random alpha: 0.0000e+00 with sign: -1.0000e+00
This is random alpha: 0.0000e+00 with sign: 1.0000e+00
This is random alpha: 0.0000e+00 with sign: 1.0000e+00
This is random alpha: 0.0000e+00 with sign: 1.0000e+00
This is random alpha: 0.0000e+00 with sign: 1.0000e+00
This is random alpha: 0.0000e+00 with sign: -1.0000e+00
This is random alpha: 0.0000e+00 with sign: -1.0000e+00
This is random alpha: 0.0000e+00 with sign: 1.0000e+00
This is random alpha: 0.0000e+00 with sign: 1.0000e+00
This is random alpha: 0.0000e+00 with sign: 1.0000e+00
This is random alpha: 0.0000e+00 with sign: -1.0000e+00
This is random alpha: 0.0000e+00 with sign: 1.0000e+00
This is random alpha: 0.0000e+00 with sign: 1.0000e+00
This is random alpha: 0.0000e+00 with sign: -1.0000e+00
This is random alpha: 0.0000e+00 with sign: 1.0000e+00
This is random alpha: 0.0000e+00 with sign: 1.0000e+00
This is random alpha: 0.0000e+00 with sign: -1.0000e+00
This is random alpha: 0.0000e+00 with sign: -1.0000e+00
This is random alpha: 0.0000e+00 with sign: 1.0000e+00
This is random alpha: 0.0000e+00 with sign: 1.0000e+00
This is random alpha: 0.0000e+00 with sign: 1.0000e+00
This is random alpha: 0.0000e+00 with sign: -1.0000e+00
This is random alpha: 0.0000e+00 with sign: -1.0000e+00
  Execution time = 2.9555e-01
  </log>
  <optVariables href="H4-descent.s002.opt.xml">
CSFcoeff_1 -5.205664e-01                3 1 ON  0
uu_0       5.680176e-01                 1 1 ON  1
uu_1       3.699138e-01                 1 1 ON  2
uu_2       2.108829e-01                 1 1 ON  3
uu_3       9.267632e-02                 1 1 ON  4
uu_4       5.276940e-03                 1 1 ON  5
uu_5       -3.330962e-02                1 1 ON  6
uu_6       -2.484192e-02                1 1 ON  7
uu_7       8.603361e-03                 1 1 ON  8
uu_8       3.763565e-02                 1 1 ON  9
uu_9       2.979626e-02                 1 1 ON  10
ud_0       9.168016e-01                 1 1 ON  11
ud_1       5.756625e-01                 1 1 ON  12
ud_2       3.465443e-01                 1 1 ON  13
ud_3       1.896617e-01                 1 1 ON  14
ud_4       8.747532e-02                 1 1 ON  15
ud_5       3.482162e-02                 1 1 ON  16
ud_6       3.708930e-02                 1 1 ON  17
ud_7       6.355172e-02                 1 1 ON  18
ud_8       7.720516e-02                 1 1 ON  19
ud_9       5.828843e-02                 1 1 ON  20
eH_0       1.539994e-02                 1 1 ON  21
eH_1       2.935596e-02                 1 1 ON  22
eH_2       -1.133046e-01                1 1 ON  23
eH_3       -9.452275e-02                1 1 ON  24
eH_4       -1.063167e-01                1 1 ON  25
eH_5       -7.820047e-02                1 1 ON  26
eH_6       -3.640043e-02                1 1 ON  27
eH_7       -6.827574e-03                1 1 ON  28
eH_8       8.345458e-03                 1 1 ON  29
eH_9       4.849582e-03                 1 1 ON  30
  </optVariables>
eH
Array
ud
Array
uu
Array
   Restore the number of walkers to 1, removing 0 walkers.
</opt>
</optimization-report>
  QMC Execution time = 2.9578e-01 secs
  Reusing QMCFixedSampleLinearOptimize
 Using QMCCostFunction::QMCCostFunction
 Using Default Cost Function: Cost = <|E-E_ff|^2>

=========================================================
  Start QMCFixedSampleLinearOptimize
  File Root H4-descent.s003 append = no 
=========================================================
  Skip QMCDriver::putQMCInfo 
  Resetting Properties of the walkers 1 x 14
Omega from input file: 0.0000e+00
Current collection step: -1
Target: generalized variational principle

=========================================================
  Start VMC
  File Root H4-descent.s003 append = no 
=========================================================
Using existing walkers 
  Resetting Properties of the walkers 1 x 14

<vmc function="put">
  qmc_counter=3  my_counter=0
  time step      = 5.0000e-02
  blocks         = 200
  steps          = 50
  substeps       = 1
  current        = 0
  target samples = 1.0000e+04
  walkers/mpi    = 1

  stepsbetweensamples = 1
<parameter name="blocks" condition="int">200</parameter>
<parameter name="blocks_between_recompute" condition="int">0</parameter>
<parameter name="check_properties" condition="int">100</parameter>
<parameter name="checkproperties" condition="int">100</parameter>
<parameter name="current" condition="int">0</parameter>
<parameter name="dmcwalkersperthread" condition="real">1.0000e+04</parameter>
<parameter name="fermionicweight" condition="real">1.0000e-04</parameter>
<parameter name="jastrowweight" condition="real">0.0000e+00</parameter>
<parameter name="maxcpusecs" condition="real">3.6000e+05</parameter>
<parameter name="mg_beta" condition="real">0.0000e+00</parameter>
<parameter name="mg_gamma" condition="real">0.0000e+00</parameter>
<parameter name="modifiedguiding" condition="string">ParameterDerivativeAdjusted</parameter>
<parameter name="orboptweight" condition="real">0.0000e+00</parameter>
<parameter name="record_configs" condition="int">0</parameter>
<parameter name="record_walkers" condition="int">1</parameter>
<parameter name="recordconfigs" condition="int">0</parameter>
<parameter name="recordwalkers" condition="int">1</parameter>
<parameter name="rewind" condition="int">0</parameter>
<parameter name="samples" condition="real">1.0000e+04</parameter>
<parameter name="samplesperthread" condition="real">1.0000e+04</parameter>
<parameter name="steps" condition="int">50</parameter>
<parameter name="stepsbetweensamples" condition="int">1</parameter>
<parameter name="store_configs" condition="int">0</parameter>
<parameter name="storeconfigs" condition="int">0</parameter>
<parameter name="sub_steps" condition="int">1</parameter>
<parameter name="substeps" condition="int">1</parameter>
<parameter name="tau" condition="au">5.0000e-02</parameter>
<parameter name="time_step" condition="au">5.0000e-02</parameter>
<parameter name="timestep" condition="au">5.0000e-02</parameter>
<parameter name="use_drift" condition="string">no</parameter>
<parameter name="usedrift" condition="string">no</parameter>
<parameter name="walkers" condition="int">1</parameter>
<parameter name="warmup_steps" condition="int">1000</parameter>
<parameter name="warmupsteps" condition="int">1000</parameter>
  DumpConfig==false Nothing (configurations, state) will be saved.
  Walker Samples are dumped every 1 steps.
</vmc>
    Restarting, cummulative properties:
      energy     = -2.4290e+00
      variance   = 0.0000e+00
      r2accepted = 1.0000e-10
      r2proposed = 1.0000e-10
  Set drift_modifier UNR parameter a = 1.0000e+00
  EstimatorManagerBase::add replace LocalEnergy estimator.
 Using QMCCostFunction::QMCCostFunction
 Using Default Cost Function: Cost = <|E-E_ff|^2>
  Set drift_modifier UNR parameter a = 1.0000e+00
  EstimatorManagerBase::add replace LocalEnergy estimator.
  EstimatorManagerBase::add replace LocalEnergy estimator.
entering engine_start function
<optimization-report>
<vmc stage="main" blocks="200">
  Cannot make clones again. Use existing 1 clones
  Initial partition of walkers 0 1 
Using ParameterDeriv Adjusted Guiding Function

  Using Particle by Particle moves
  Walker moves without drift
  Total Sample Size   =10000
  Walker distribution on root = 0 1 
  Anonymous Buffer size per walker : 1704 Bytes.
MEMORY increase 0 MB VMC::resetRun
====================================================
  SimpleFixedNodeBranch::finalize after a VMC block
    QMC counter        = 3
    time step          = 0.05
    reference energy   = -2.26551
    reference variance = -2.67099e-17
====================================================
  Execution time = 2.1166e-01
</vmc>
<opt stage="setup">
  <log>
     Reading configurations from h5FileRoot H4-descent.s003
  QMCCostFunction is created with 1 threads.
  Using Nonlocal PP in Opt: no
   Number of samples loaded to each thread : 10000 
Value of Filter Bool: false before_first_block_sample: true onDescentStep: true
Before engine_checkConfigurations
Double check filter inside engine_checkConfig: false
 w_tot 9.9948e+03
  VMC Eavg = -2.0333e+00
  VMC Evar = 1.7734e-01
  Total weights = 9.994782472e+03
Energy Average: -2.033304332e+00
Energy Variance: 1.766322638e-01
Weight Total: 2.000000000e+04
VGS Total: 1.998956494e+04
Energy Standard Deviation: 4.202764135e-01
Energy Standard Error: 4.202764135e-03
Target Function Average: 3.268583237e-01
Norm of Gradient Vector: 4.630068546e+00
After engine_checkConfig
  Execution time = 8.7472e-02
  </log>
</opt>
<opt stage="main" walkers="10000">
  <log>
Value of descent_num: 3
Number of Parameters: 31
Descent Number: 3
Finalization Descent Num (should be zero if not on last section): 0
Parameter Type step sizes:  TJF_2Body_eta=1.0000e-03 TJF_1Body_eta=1.0000e-033Body_eta1.0000e-04 F_eta=1.0000e-03 CI_eta=1.0000e-03 Orb_eta=1.0000e-03
Using Random
This is random alpha: 0.0000e+00 with sign: -1.0000e+00
This is random alpha: 0.0000e+00 with sign: -1.0000e+00
This is random alpha: 0.0000e+00 with sign: 1.0000e+00
This is random alpha: 0.0000e+00 with sign: 1.0000e+00
This is random alpha: 0.0000e+00 with sign: -1.0000e+00
This is random alpha: 0.0000e+00 with sign: -1.0000e+00
This is random alpha: 0.0000e+00 with sign: 1.0000e+00
This is random alpha: 0.0000e+00 with sign: -1.0000e+00
This is random alpha: 0.0000e+00 with sign: -1.0000e+00
This is random alpha: 0.0000e+00 with sign: 1.0000e+00
This is random alpha: 0.0000e+00 with sign: 1.0000e+00
This is random alpha: 0.0000e+00 with sign: -1.0000e+00
This is random alpha: 0.0000e+00 with sign: -1.0000e+00
This is random alpha: 0.0000e+00 with sign: 1.0000e+00
This is random alpha: 0.0000e+00 with sign: -1.0000e+00
This is random alpha: 0.0000e+00 with sign: 1.0000e+00
This is random alpha: 0.0000e+00 with sign: 1.0000e+00
This is random alpha: 0.0000e+00 with sign: 1.0000e+00
This is random alpha: 0.0000e+00 with sign: -1.0000e+00
This is random alpha: 0.0000e+00 with sign: -1.0000e+00
This is random alpha: 0.0000e+00 with sign: 1.0000e+00
This is random alpha: 0.0000e+00 with sign: -1.0000e+00
This is random alpha: 0.0000e+00 with sign: -1.0000e+00
This is random alpha: 0.0000e+00 with sign: 1.0000e+00
This is random alpha: 0.0000e+00 with sign: 1.0000e+00
This is random alpha: 0.0000e+00 with sign: -1.0000e+00
This is random alpha: 0.0000e+00 with sign: 1.0000e+00
This is random alpha: 0.0000e+00 with sign: -1.0000e+00
This is random alpha: 0.0000e+00 with sign: -1.0000e+00
This is random alpha: 0.0000e+00 with sign: 1.0000e+00
This is random alpha: 0.0000e+00 with sign: -1.0000e+00
  Execution time = 2.9920e-01
  </log>
  <optVariables href="H4-descent.s003.opt.xml">
CSFcoeff_1 -5.205664e-01                3 1 ON  0
uu_0       5.680176e-01                 1 1 ON  1
uu_1       3.699138e-01                 1 1 ON  2
uu_2       2.108829e-01                 1 1 ON  3
uu_3       9.267632e-02                 1 1 ON  4
uu_4       5.276940e-03                 1 1 ON  5
uu_5       -3.330962e-02                1 1 ON  6
uu_6       -2.484192e-02                1 1 ON  7
uu_7       8.603361e-03                 1 1 ON  8
uu_8       3.763565e-02                 1 1 ON  9
uu_9       2.979626e-02                 1 1 ON  10
ud_0       9.168016e-01                 1 1 ON  11
ud_1       5.756625e-01                 1 1 ON  12
ud_2       3.465443e-01                 1 1 ON  13
ud_3       1.896617e-01                 1 1 ON  14
ud_4       8.747532e-02                 1 1 ON  15
ud_5       3.482162e-02                 1 1 ON  16
ud_6       3.708930e-02                 1 1 ON  17
ud_7       6.355172e-02                 1 1 ON  18
ud_8       7.720516e-02                 1 1 ON  19
ud_9       5.828843e-02                 1 1 ON  20
eH_0       1.539994e-02                 1 1 ON  21
eH_1       2.935596e-02                 1 1 ON  22
eH_2       -1.133046e-01                1 1 ON  23
eH_3       -9.452275e-02                1 1 ON  24
eH_4       -1.063167e-01                1 1 ON  25
eH_5       -7.820047e-02                1 1 ON  26
eH_6       -3.640043e-02                1 1 ON  27
eH_7       -6.827574e-03                1 1 ON  28
eH_8       8.345458e-03                 1 1 ON  29
eH_9       4.849582e-03                 1 1 ON  30
  </optVariables>
eH
Array
ud
Array
uu
Array
   Restore the number of walkers to 1, removing 0 walkers.
</opt>
</optimization-report>
  QMC Execution time = 2.9943e-01 secs
  Reusing QMCFixedSampleLinearOptimize
 Using QMCCostFunction::QMCCostFunction
 Using Default Cost Function: Cost = <|E-E_ff|^2>

=========================================================
  Start QMCFixedSampleLinearOptimize
  File Root H4-descent.s004 append = no 
=========================================================
  Skip QMCDriver::putQMCInfo 
  Resetting Properties of the walkers 1 x 14
Omega from input file: 0.0000e+00
Current collection step: -1
Target: generalized variational principle

=========================================================
  Start VMC
  File Root H4-descent.s004 append = no 
=========================================================
Using existing walkers 
  Resetting Properties of the walkers 1 x 14

<vmc function="put">
  qmc_counter=4  my_counter=0
  time step      = 5.0000e-02
  blocks         = 200
  steps          = 50
  substeps       = 1
  current        = 0
  target samples = 1.0000e+04
  walkers/mpi    = 1

  stepsbetweensamples = 1
<parameter name="blocks" condition="int">200</parameter>
<parameter name="blocks_between_recompute" condition="int">0</parameter>
<parameter name="check_properties" condition="int">100</parameter>
<parameter name="checkproperties" condition="int">100</parameter>
<parameter name="current" condition="int">0</parameter>
<parameter name="dmcwalkersperthread" condition="real">1.0000e+04</parameter>
<parameter name="fermionicweight" condition="real">1.0000e-04</parameter>
<parameter name="jastrowweight" condition="real">0.0000e+00</parameter>
<parameter name="maxcpusecs" condition="real">3.6000e+05</parameter>
<parameter name="mg_beta" condition="real">0.0000e+00</parameter>
<parameter name="mg_gamma" condition="real">0.0000e+00</parameter>
<parameter name="modifiedguiding" condition="string">ParameterDerivativeAdjusted</parameter>
<parameter name="orboptweight" condition="real">0.0000e+00</parameter>
<parameter name="record_configs" condition="int">0</parameter>
<parameter name="record_walkers" condition="int">1</parameter>
<parameter name="recordconfigs" condition="int">0</parameter>
<parameter name="recordwalkers" condition="int">1</parameter>
<parameter name="rewind" condition="int">0</parameter>
<parameter name="samples" condition="real">1.0000e+04</parameter>
<parameter name="samplesperthread" condition="real">1.0000e+04</parameter>
<parameter name="steps" condition="int">50</parameter>
<parameter name="stepsbetweensamples" condition="int">1</parameter>
<parameter name="store_configs" condition="int">0</parameter>
<parameter name="storeconfigs" condition="int">0</parameter>
<parameter name="sub_steps" condition="int">1</parameter>
<parameter name="substeps" condition="int">1</parameter>
<parameter name="tau" condition="au">5.0000e-02</parameter>
<parameter name="time_step" condition="au">5.0000e-02</parameter>
<parameter name="timestep" condition="au">5.0000e-02</parameter>
<parameter name="use_drift" condition="string">no</parameter>
<parameter name="usedrift" condition="string">no</parameter>
<parameter name="walkers" condition="int">1</parameter>
<parameter name="warmup_steps" condition="int">1000</parameter>
<parameter name="warmupsteps" condition="int">1000</parameter>
  DumpConfig==false Nothing (configurations, state) will be saved.
  Walker Samples are dumped every 1 steps.
</vmc>
    Restarting, cummulative properties:
      energy     = -2.3881e+00
      variance   = 0.0000e+00
      r2accepted = 1.0000e-10
      r2proposed = 1.0000e-10
  Set drift_modifier UNR parameter a = 1.0000e+00
  EstimatorManagerBase::add replace LocalEnergy estimator.
 Using QMCCostFunction::QMCCostFunction
 Using Default Cost Function: Cost = <|E-E_ff|^2>
  Set drift_modifier UNR parameter a = 1.0000e+00
  EstimatorManagerBase::add replace LocalEnergy estimator.
  EstimatorManagerBase::add replace LocalEnergy estimator.
entering engine_start function
<optimization-report>
<vmc stage="main" blocks="200">
  Cannot make clones again. Use existing 1 clones
  Initial partition of walkers 0 1 
Using ParameterDeriv Adjusted Guiding Function

  Using Particle by Particle moves
  Walker moves without drift
  Total Sample Size   =10000
  Walker distribution on root = 0 1 
  Anonymous Buffer size per walker : 1704 Bytes.
MEMORY increase 0 MB VMC::resetRun
====================================================
  SimpleFixedNodeBranch::finalize after a VMC block
    QMC counter        = 4
    time step          = 0.05
    reference energy   = -2.09208
    reference variance = 3.39087e-16
====================================================
  Execution time = 2.1024e-01
</vmc>
<opt stage="setup">
  <log>
     Reading configurations from h5FileRoot H4-descent.s004
  QMCCostFunction is created with 1 threads.
  Using Nonlocal PP in Opt: no
   Number of samples loaded to each thread : 10000 
Value of Filter Bool: false before_first_block_sample: true onDescentStep: true
Before engine_checkConfigurations
Double check filter inside engine_checkConfig: false
 w_tot 9.9989e+03
  VMC Eavg = -2.0587e+00
  VMC Evar = 1.8895e-01
  Total weights = 9.998946987e+03
Energy Average: -2.058710576e+00
Energy Variance: 1.889567685e-01
Weight Total: 2.000000000e+04
VGS Total: 1.999789397e+04
Energy Standard Deviation: 4.346915786e-01
Energy Standard Error: 4.346915786e-03
Target Function Average: 1.343699130e-01
Norm of Gradient Vector: 1.768512038e+00
After engine_checkConfig
  Execution time = 8.8266e-02
  </log>
</opt>
<opt stage="main" walkers="10000">
  <log>
Value of descent_num: 4
Number of Parameters: 31
Descent Number: 4
Finalization Descent Num (should be zero if not on last section): 0
Parameter Type step sizes:  TJF_2Body_eta=1.0000e-03 TJF_1Body_eta=1.0000e-033Body_eta1.0000e-04 F_eta=1.0000e-03 CI_eta=1.0000e-03 Orb_eta=1.0000e-03
Using Random
This is random alpha: 0.0000e+00 with sign: -1.0000e+00
This is random alpha: 0.0000e+00 with sign: -1.0000e+00
This is random alpha: 0.0000e+00 with sign: 1.0000e+00
This is random alpha: 0.0000e+00 with sign: -1.0000e+00
This is random alpha: 0.0000e+00 with sign: -1.0000e+00
This is random alpha: 0.0000e+00 with sign: 1.0000e+00
This is random alpha: 0.0000e+00 with sign: -1.0000e+00
This is random alpha: 0.0000e+00 with sign: 1.0000e+00
This is random alpha: 0.0000e+00 with sign: 1.0000e+00
This is random alpha: 0.0000e+00 with sign: 1.0000e+00
This is random alpha: 0.0000e+00 with sign: 1.0000e+00
This is random alpha: 0.0000e+00 with sign: -1.0000e+00
This is random alpha: 0.0000e+00 with sign: 1.0000e+00
This is random alpha: 0.0000e+00 with sign: -1.0000e+00
This is random alpha: 0.0000e+00 with sign: -1.0000e+00
This is random alpha: 0.0000e+00 with sign: 1.0000e+00
This is random alpha: 0.0000e+00 with sign: -1.0000e+00
This is random alpha: 0.0000e+00 with sign: -1.0000e+00
This is random alpha: 0.0000e+00 with sign: -1.0000e+00
This is random alpha: 0.0000e+00 with sign: -1.0000e+00
This is random alpha: 0.0000e+00 with sign: 1.0000e+00
This is random alpha: 0.0000e+00 with sign: -1.0000e+00
This is random alpha: 0.0000e+00 with sign: -1.0000e+00
This is random alpha: 0.0000e+00 with sign: -1.0000e+00
This is random alpha: 0.0000e+00 with sign: 1.0000e+00
This is random alpha: 0.0000e+00 with sign: 1.0000e+00
This is random alpha: 0.0000e+00 with sign: -1.0000e+00
This is random alpha: 0.0000e+00 with sign: -1.0000e+00
This is random alpha: 0.0000e+00 with sign: 1.0000e+00
This is random alpha: 0.0000e+00 with sign: -1.0000e+00
This is random alpha: 0.0000e+00 with sign: 1.0000e+00
  Execution time = 2.9858e-01
  </log>
  <optVariables href="H4-descent.s004.opt.xml">
CSFcoeff_1 -5.205664e-01                3 1 ON  0
uu_0       5.680176e-01                 1 1 ON  1
uu_1       3.699138e-01                 1 1 ON  2
uu_2       2.108829e-01                 1 1 ON  3
uu_3       9.267632e-02                 1 1 ON  4
uu_4       5.276940e-03                 1 1 ON  5
uu_5       -3.330962e-02                1 1 ON  6
uu_6       -2.484192e-02                1 1 ON  7
uu_7       8.603361e-03                 1 1 ON  8
uu_8       3.763565e-02                 1 1 ON  9
uu_9       2.979626e-02                 1 1 ON  10
ud_0       9.168016e-01                 1 1 ON  11
ud_1       5.756625e-01                 1 1 ON  12
ud_2       3.465443e-01                 1 1 ON  13
ud_3       1.896617e-01                 1 1 ON  14
ud_4       8.747532e-02                 1 1 ON  15
ud_5       3.482162e-02                 1 1 ON  16
ud_6       3.708930e-02                 1 1 ON  17
ud_7       6.355172e-02                 1 1 ON  18
ud_8       7.720516e-02                 1 1 ON  19
ud_9       5.828843e-02                 1 1 ON  20
eH_0       1.539994e-02                 1 1 ON  21
eH_1       2.935596e-02                 1 1 ON  22
eH_2       -1.133046e-01                1 1 ON  23
eH_3       -9.452275e-02                1 1 ON  24
eH_4       -1.063167e-01                1 1 ON  25
eH_5       -7.820047e-02                1 1 ON  26
eH_6       -3.640043e-02                1 1 ON  27
eH_7       -6.827574e-03                1 1 ON  28
eH_8       8.345458e-03                 1 1 ON  29
eH_9       4.849582e-03                 1 1 ON  30
  </optVariables>
eH
Array
ud
Array
uu
Array
   Restore the number of walkers to 1, removing 0 walkers.
</opt>
</optimization-report>
  QMC Execution time = 2.9882e-01 secs
  Reusing QMCFixedSampleLinearOptimize
 Using QMCCostFunction::QMCCostFunction
 Using Default Cost Function: Cost = <|E-E_ff|^2>

=========================================================
  Start QMCFixedSampleLinearOptimize
  File Root H4-descent.s005 append = no 
=========================================================
  Skip QMCDriver::putQMCInfo 
  Resetting Properties of the walkers 1 x 14
Omega from input file: 0.0000e+00
Current collection step: -1
Target: generalized variational principle

=========================================================
  Start VMC
  File Root H4-descent.s005 append = no 
=========================================================
Using existing walkers 
  Resetting Properties of the walkers 1 x 14

<vmc function="put">
  qmc_counter=5  my_counter=0
  time step      = 5.0000e-02
  blocks         = 200
  steps          = 50
  substeps       = 1
  current        = 0
  target samples = 1.0000e+04
  walkers/mpi    = 1

  stepsbetweensamples = 1
<parameter name="blocks" condition="int">200</parameter>
<parameter name="blocks_between_recompute" condition="int">0</parameter>
<parameter name="check_properties" condition="int">100</parameter>
<parameter name="checkproperties" condition="int">100</parameter>
<parameter name="current" condition="int">0</parameter>
<parameter name="dmcwalkersperthread" condition="real">1.0000e+04</parameter>
<parameter name="fermionicweight" condition="real">1.0000e-04</parameter>
<parameter name="jastrowweight" condition="real">0.0000e+00</parameter>
<parameter name="maxcpusecs" condition="real">3.6000e+05</parameter>
<parameter name="mg_beta" condition="real">0.0000e+00</parameter>
<parameter name="mg_gamma" condition="real">0.0000e+00</parameter>
<parameter name="modifiedguiding" condition="string">ParameterDerivativeAdjusted</parameter>
<parameter name="orboptweight" condition="real">0.0000e+00</parameter>
<parameter name="record_configs" condition="int">0</parameter>
<parameter name="record_walkers" condition="int">1</parameter>
<parameter name="recordconfigs" condition="int">0</parameter>
<parameter name="recordwalkers" condition="int">1</parameter>
<parameter name="rewind" condition="int">0</parameter>
<parameter name="samples" condition="real">1.0000e+04</parameter>
<parameter name="samplesperthread" condition="real">1.0000e+04</parameter>
<parameter name="steps" condition="int">50</parameter>
<parameter name="stepsbetweensamples" condition="int">1</parameter>
<parameter name="store_configs" condition="int">0</parameter>
<parameter name="storeconfigs" condition="int">0</parameter>
<parameter name="sub_steps" condition="int">1</parameter>
<parameter name="substeps" condition="int">1</parameter>
<parameter name="tau" condition="au">5.0000e-02</parameter>
<parameter name="time_step" condition="au">5.0000e-02</parameter>
<parameter name="timestep" condition="au">5.0000e-02</parameter>
<parameter name="use_drift" condition="string">no</parameter>
<parameter name="usedrift" condition="string">no</parameter>
<parameter name="walkers" condition="int">1</parameter>
<parameter name="warmup_steps" condition="int">1000</parameter>
<parameter name="warmupsteps" condition="int">1000</parameter>
  DumpConfig==false Nothing (configurations, state) will be saved.
  Walker Samples are dumped every 1 steps.
</vmc>
    Restarting, cummulative properties:
      energy     = -2.3289e+00
      variance   = 0.0000e+00
      r2accepted = 1.0000e-10
      r2proposed = 1.0000e-10
  Set drift_modifier UNR parameter a = 1.0000e+00
  EstimatorManagerBase::add replace LocalEnergy estimator.
 Using QMCCostFunction::QMCCostFunction
 Using Default Cost Function: Cost = <|E-E_ff|^2>
  Set drift_modifier UNR parameter a = 1.0000e+00
  EstimatorManagerBase::add replace LocalEnergy estimator.
  EstimatorManagerBase::add replace LocalEnergy estimator.
entering engine_start function
<optimization-report>
<vmc stage="main" blocks="200">
  Cannot make clones again. Use existing 1 clones
  Initial partition of walkers 0 1 
Using ParameterDeriv Adjusted Guiding Function

  Using Particle by Particle moves
  Walker moves without drift
  Total Sample Size   =10000
  Walker distribution on root = 0 1 
  Anonymous Buffer size per walker : 1704 Bytes.
MEMORY increase 0 MB VMC::resetRun
====================================================
  SimpleFixedNodeBranch::finalize after a VMC block
    QMC counter        = 5
    time step          = 0.05
    reference energy   = -1.84527
    reference variance = -1.70605e-16
====================================================
  Execution time = 2.1131e-01
</vmc>
<opt stage="setup">
  <log>
     Reading configurations from h5FileRoot H4-descent.s005
  QMCCostFunction is created with 1 threads.
  Using Nonlocal PP in Opt: no
   Number of samples loaded to each thread : 10000 
Value of Filter Bool: false before_first_block_sample: true onDescentStep: true
Before engine_checkConfigurations
Double check filter inside engine_checkConfig: false
 w_tot 9.9990e+03
  VMC Eavg = -2.0446e+00
  VMC Evar = 1.4430e-01
  Total weights = 9.999035958e+03
Energy Average: -2.044556898e+00
Energy Variance: 1.443104113e-01
Weight Total: 2.000000000e+04
VGS Total: 1.999807192e+04
Energy Standard Deviation: 3.798821018e-01
Energy Standard Error: 3.798821018e-03
Target Function Average: 1.930702510e-01
Norm of Gradient Vector: 2.556012493e+00
After engine_checkConfig
  Execution time = 8.7541e-02
  </log>
</opt>
<opt stage="main" walkers="10000">
  <log>
Value of descent_num: 5
Number of Parameters: 31
Descent Number: 5
Finalization Descent Num (should be zero if not on last section): 0
Parameter Type step sizes:  TJF_2Body_eta=1.0000e-03 TJF_1Body_eta=1.0000e-033Body_eta1.0000e-04 F_eta=1.0000e-03 CI_eta=1.0000e-03 Orb_eta=1.0000e-03
Using Random
This is random alpha: 0.0000e+00 with sign: -1.0000e+00
This is random alpha: 0.0000e+00 with sign: 1.0000e+00
This is random alpha: 0.0000e+00 with sign: -1.0000e+00
This is random alpha: 0.0000e+00 with sign: 1.0000e+00
This is random alpha: 0.0000e+00 with sign: -1.0000e+00
This is random alpha: 0.0000e+00 with sign: -1.0000e+00
This is random alpha: 0.0000e+00 with sign: -1.0000e+00
This is random alpha: 0.0000e+00 with sign: 1.0000e+00
This is random alpha: 0.0000e+00 with sign: 1.0000e+00
This is random alpha: 0.0000e+00 with sign: -1.0000e+00
This is random alpha: 0.0000e+00 with sign: -1.0000e+00
This is random alpha: 0.0000e+00 with sign: 1.0000e+00
This is random alpha: 0.0000e+00 with sign: 1.0000e+00
This is random alpha: 0.0000e+00 with sign: 1.0000e+00
This is random alpha: 0.0000e+00 with sign: 1.0000e+00
This is random alpha: 0.0000e+00 with sign: -1.0000e+00
This is random alpha: 0.0000e+00 with sign: -1.0000e+00
This is random alpha: 0.0000e+00 with sign: 1.0000e+00
This is random alpha: 0.0000e+00 with sign: -1.0000e+00
This is random alpha: 0.0000e+00 with sign: 1.0000e+00
This is random alpha: 0.0000e+00 with sign: 1.0000e+00
This is random alpha: 0.0000e+00 with sign: 1.0000e+00
This is random alpha: 0.0000e+00 with sign: -1.0000e+00
This is random alpha: 0.0000e+00 with sign: 1.0000e+00
This is random alpha: 0.0000e+00 with sign: -1.0000e+00
This is random alpha: 0.0000e+00 with sign: 1.0000e+00
This is random alpha: 0.0000e+00 with sign: -1.0000e+00
This is random alpha: 0.0000e+00 with sign: -1.0000e+00
This is random alpha: 0.0000e+00 with sign: -1.0000e+00
This is random alpha: 0.0000e+00 with sign: -1.0000e+00
This is random alpha: 0.0000e+00 with sign: 1.0000e+00
  Execution time = 2.9894e-01
  </log>
  <optVariables href="H4-descent.s005.opt.xml">
CSFcoeff_1 -5.205664e-01                3 1 ON  0
uu_0       5.680176e-01                 1 1 ON  1
uu_1       3.699138e-01                 1 1 ON  2
uu_2       2.108829e-01                 1 1 ON  3
uu_3       9.267632e-02                 1 1 ON  4
uu_4       5.276940e-03                 1 1 ON  5
uu_5       -3.330962e-02                1 1 ON  6
uu_6       -2.484192e-02                1 1 ON  7
uu_7       8.603361e-03                 1 1 ON  8
uu_8       3.763565e-02                 1 1 ON  9
uu_9       2.979626e-02                 1 1 ON  10
ud_0       9.168016e-01                 1 1 ON  11
ud_1       5.756625e-01                 1 1 ON  12
ud_2       3.465443e-01                 1 1 ON  13
ud_3       1.896617e-01                 1 1 ON  14
ud_4       8.747532e-02                 1 1 ON  15
ud_5       3.482162e-02                 1 1 ON  16
ud_6       3.708930e-02                 1 1 ON  17
ud_7       6.355172e-02                 1 1 ON  18
ud_8       7.720516e-02                 1 1 ON  19
ud_9       5.828843e-02                 1 1 ON  20
eH_0       1.539994e-02                 1 1 ON  21
eH_1       2.935596e-02                 1 1 ON  22
eH_2       -1.133046e-01                1 1 ON  23
eH_3       -9.452275e-02                1 1 ON  24
eH_4       -1.063167e-01                1 1 ON  25
eH_5       -7.820047e-02                1 1 ON  26
eH_6       -3.640043e-02                1 1 ON  27
eH_7       -6.827574e-03                1 1 ON  28
eH_8       8.345458e-03                 1 1 ON  29
eH_9       4.849582e-03                 1 1 ON  30
  </optVariables>
eH
Array
ud
Array
uu
Array
   Restore the number of walkers to 1, removing 0 walkers.
</opt>
</optimization-report>
  QMC Execution time = 2.9930e-01 secs
  Reusing QMCFixedSampleLinearOptimize
 Using QMCCostFunction::QMCCostFunction
 Using Default Cost Function: Cost = <|E-E_ff|^2>

=========================================================
  Start QMCFixedSampleLinearOptimize
  File Root H4-descent.s006 append = no 
=========================================================
  Skip QMCDriver::putQMCInfo 
  Resetting Properties of the walkers 1 x 14
Omega from input file: 0.0000e+00
Current collection step: -1
Target: generalized variational principle

=========================================================
  Start VMC
  File Root H4-descent.s006 append = no 
=========================================================
Using existing walkers 
  Resetting Properties of the walkers 1 x 14

<vmc function="put">
  qmc_counter=6  my_counter=0
  time step      = 5.0000e-02
  blocks         = 200
  steps          = 50
  substeps       = 1
  current        = 0
  target samples = 1.0000e+04
  walkers/mpi    = 1

  stepsbetweensamples = 1
<parameter name="blocks" condition="int">200</parameter>
<parameter name="blocks_between_recompute" condition="int">0</parameter>
<parameter name="check_properties" condition="int">100</parameter>
<parameter name="checkproperties" condition="int">100</parameter>
<parameter name="current" condition="int">0</parameter>
<parameter name="dmcwalkersperthread" condition="real">1.0000e+04</parameter>
<parameter name="fermionicweight" condition="real">1.0000e-04</parameter>
<parameter name="jastrowweight" condition="real">0.0000e+00</parameter>
<parameter name="maxcpusecs" condition="real">3.6000e+05</parameter>
<parameter name="mg_beta" condition="real">0.0000e+00</parameter>
<parameter name="mg_gamma" condition="real">0.0000e+00</parameter>
<parameter name="modifiedguiding" condition="string">ParameterDerivativeAdjusted</parameter>
<parameter name="orboptweight" condition="real">0.0000e+00</parameter>
<parameter name="record_configs" condition="int">0</parameter>
<parameter name="record_walkers" condition="int">1</parameter>
<parameter name="recordconfigs" condition="int">0</parameter>
<parameter name="recordwalkers" condition="int">1</parameter>
<parameter name="rewind" condition="int">0</parameter>
<parameter name="samples" condition="real">1.0000e+04</parameter>
<parameter name="samplesperthread" condition="real">1.0000e+04</parameter>
<parameter name="steps" condition="int">50</parameter>
<parameter name="stepsbetweensamples" condition="int">1</parameter>
<parameter name="store_configs" condition="int">0</parameter>
<parameter name="storeconfigs" condition="int">0</parameter>
<parameter name="sub_steps" condition="int">1</parameter>
<parameter name="substeps" condition="int">1</parameter>
<parameter name="tau" condition="au">5.0000e-02</parameter>
<parameter name="time_step" condition="au">5.0000e-02</parameter>
<parameter name="timestep" condition="au">5.0000e-02</parameter>
<parameter name="use_drift" condition="string">no</parameter>
<parameter name="usedrift" condition="string">no</parameter>
<parameter name="walkers" condition="int">1</parameter>
<parameter name="warmup_steps" condition="int">1000</parameter>
<parameter name="warmupsteps" condition="int">1000</parameter>
  DumpConfig==false Nothing (configurations, state) will be saved.
  Walker Samples are dumped every 1 steps.
</vmc>
    Restarting, cummulative properties:
      energy     = -2.2483e+00
      variance   = 0.0000e+00
      r2accepted = 1.0000e-10
      r2proposed = 1.0000e-10
  Set drift_modifier UNR parameter a = 1.0000e+00
  EstimatorManagerBase::add replace LocalEnergy estimator.
 Using QMCCostFunction::QMCCostFunction
 Using Default Cost Function: Cost = <|E-E_ff|^2>
  Set drift_modifier UNR parameter a = 1.0000e+00
  EstimatorManagerBase::add replace LocalEnergy estimator.
  EstimatorManagerBase::add replace LocalEnergy estimator.
entering engine_start function
<optimization-report>
<vmc stage="main" blocks="200">
  Cannot make clones again. Use existing 1 clones
  Initial partition of walkers 0 1 
Using ParameterDeriv Adjusted Guiding Function

  Using Particle by Particle moves
  Walker moves without drift
  Total Sample Size   =10000
  Walker distribution on root = 0 1 
  Anonymous Buffer size per walker : 1704 Bytes.
MEMORY increase 0 MB VMC::resetRun
====================================================
  SimpleFixedNodeBranch::finalize after a VMC block
    QMC counter        = 6
    time step          = 0.05
    reference energy   = -1.88118
    reference variance = -1.68038e-16
====================================================
  Execution time = 2.1153e-01
</vmc>
<opt stage="setup">
  <log>
     Reading configurations from h5FileRoot H4-descent.s006
  QMCCostFunction is created with 1 threads.
  Using Nonlocal PP in Opt: no
   Number of samples loaded to each thread : 10000 
Value of Filter Bool: false before_first_block_sample: true onDescentStep: true
Before engine_checkConfigurations
Double check filter inside engine_checkConfig: false
 w_tot 9.9991e+03
  VMC Eavg = -2.0537e+00
  VMC Evar = 1.5683e-01
  Total weights = 9.999138248e+03
Energy Average: -2.053663959e+00
Energy Variance: 1.568416006e-01
Weight Total: 2.000000000e+04
VGS Total: 1.999827650e+04
Energy Standard Deviation: 3.960323227e-01
Energy Standard Error: 3.960323227e-03
Target Function Average: 1.122305551e-01
Norm of Gradient Vector: 1.831392755e+00
After engine_checkConfig
  Execution time = 8.5992e-02
  </log>
</opt>
<opt stage="main" walkers="10000">
  <log>
Value of descent_num: 6
Number of Parameters: 31
Descent Number: 6
Finalization Descent Num (should be zero if not on last section): 0
Parameter Type step sizes:  TJF_2Body_eta=1.0000e-03 TJF_1Body_eta=1.0000e-033Body_eta1.0000e-04 F_eta=1.0000e-03 CI_eta=1.0000e-03 Orb_eta=1.0000e-03
Using Random
This is random alpha: 0.0000e+00 with sign: -1.0000e+00
This is random alpha: 0.0000e+00 with sign: -1.0000e+00
This is random alpha: 0.0000e+00 with sign: 1.0000e+00
This is random alpha: 0.0000e+00 with sign: -1.0000e+00
This is random alpha: 0.0000e+00 with sign: -1.0000e+00
This is random alpha: 0.0000e+00 with sign: -1.0000e+00
This is random alpha: 0.0000e+00 with sign: -1.0000e+00
This is random alpha: 0.0000e+00 with sign: 1.0000e+00
This is random alpha: 0.0000e+00 with sign: 1.0000e+00
This is random alpha: 0.0000e+00 with sign: 1.0000e+00
This is random alpha: 0.0000e+00 with sign: 1.0000e+00
This is random alpha: 0.0000e+00 with sign: -1.0000e+00
This is random alpha: 0.0000e+00 with sign: -1.0000e+00
This is random alpha: 0.0000e+00 with sign: -1.0000e+00
This is random alpha: 0.0000e+00 with sign: -1.0000e+00
This is random alpha: 0.0000e+00 with sign: 1.0000e+00
This is random alpha: 0.0000e+00 with sign: 1.0000e+00
This is random alpha: 0.0000e+00 with sign: 1.0000e+00
This is random alpha: 0.0000e+00 with sign: -1.0000e+00
This is random alpha: 0.0000e+00 with sign: 1.0000e+00
This is random alpha: 0.0000e+00 with sign: 1.0000e+00
This is random alpha: 0.0000e+00 with sign: -1.0000e+00
This is random alpha: 0.0000e+00 with sign: 1.0000e+00
This is random alpha: 0.0000e+00 with sign: -1.0000e+00
This is random alpha: 0.0000e+00 with sign: 1.0000e+00
This is random alpha: 0.0000e+00 with sign: -1.0000e+00
This is random alpha: 0.0000e+00 with sign: 1.0000e+00
This is random alpha: 0.0000e+00 with sign: -1.0000e+00
This is random alpha: 0.0000e+00 with sign: -1.0000e+00
This is random alpha: 0.0000e+00 with sign: 1.0000e+00
This is random alpha: 0.0000e+00 with sign: 1.0000e+00
  Execution time = 2.9760e-01
  </log>
  <optVariables href="H4-descent.s006.opt.xml">
CSFcoeff_1 -5.205664e-01                3 1 ON  0
uu_0       5.680176e-01                 1 1 ON  1
uu_1       3.699138e-01                 1 1 ON  2
uu_2       2.108829e-01                 1 1 ON  3
uu_3       9.267632e-02                 1 1 ON  4
uu_4       5.276940e-03                 1 1 ON  5
uu_5       -3.330962e-02                1 1 ON  6
uu_6       -2.484192e-02                1 1 ON  7
uu_7       8.603361e-03                 1 1 ON  8
uu_8       3.763565e-02                 1 1 ON  9
uu_9       2.979626e-02                 1 1 ON  10
ud_0       9.168016e-01                 1 1 ON  11
ud_1       5.756625e-01                 1 1 ON  12
ud_2       3.465443e-01                 1 1 ON  13
ud_3       1.896617e-01                 1 1 ON  14
ud_4       8.747532e-02                 1 1 ON  15
ud_5       3.482162e-02                 1 1 ON  16
ud_6       3.708930e-02                 1 1 ON  17
ud_7       6.355172e-02                 1 1 ON  18
ud_8       7.720516e-02                 1 1 ON  19
ud_9       5.828843e-02                 1 1 ON  20
eH_0       1.539994e-02                 1 1 ON  21
eH_1       2.935596e-02                 1 1 ON  22
eH_2       -1.133046e-01                1 1 ON  23
eH_3       -9.452275e-02                1 1 ON  24
eH_4       -1.063167e-01                1 1 ON  25
eH_5       -7.820047e-02                1 1 ON  26
eH_6       -3.640043e-02                1 1 ON  27
eH_7       -6.827574e-03                1 1 ON  28
eH_8       8.345458e-03                 1 1 ON  29
eH_9       4.849582e-03                 1 1 ON  30
  </optVariables>
eH
Array
ud
Array
uu
Array
   Restore the number of walkers to 1, removing 0 walkers.
</opt>
</optimization-report>
  QMC Execution time = 2.9783e-01 secs
  Reusing QMCFixedSampleLinearOptimize
 Using QMCCostFunction::QMCCostFunction
 Using Default Cost Function: Cost = <|E-E_ff|^2>

=========================================================
  Start QMCFixedSampleLinearOptimize
  File Root H4-descent.s007 append = no 
=========================================================
  Skip QMCDriver::putQMCInfo 
  Resetting Properties of the walkers 1 x 14
Omega from input file: 0.0000e+00
Current collection step: -1
Target: generalized variational principle

=========================================================
  Start VMC
  File Root H4-descent.s007 append = no 
=========================================================
Using existing walkers 
  Resetting Properties of the walkers 1 x 14

<vmc function="put">
  qmc_counter=7  my_counter=0
  time step      = 5.0000e-02
  blocks         = 200
  steps          = 50
  substeps       = 1
  current        = 0
  target samples = 1.0000e+04
  walkers/mpi    = 1

  stepsbetweensamples = 1
<parameter name="blocks" condition="int">200</parameter>
<parameter name="blocks_between_recompute" condition="int">0</parameter>
<parameter name="check_properties" condition="int">100</parameter>
<parameter name="checkproperties" condition="int">100</parameter>
<parameter name="current" condition="int">0</parameter>
<parameter name="dmcwalkersperthread" condition="real">1.0000e+04</parameter>
<parameter name="fermionicweight" condition="real">1.0000e-04</parameter>
<parameter name="jastrowweight" condition="real">0.0000e+00</parameter>
<parameter name="maxcpusecs" condition="real">3.6000e+05</parameter>
<parameter name="mg_beta" condition="real">0.0000e+00</parameter>
<parameter name="mg_gamma" condition="real">0.0000e+00</parameter>
<parameter name="modifiedguiding" condition="string">ParameterDerivativeAdjusted</parameter>
<parameter name="orboptweight" condition="real">0.0000e+00</parameter>
<parameter name="record_configs" condition="int">0</parameter>
<parameter name="record_walkers" condition="int">1</parameter>
<parameter name="recordconfigs" condition="int">0</parameter>
<parameter name="recordwalkers" condition="int">1</parameter>
<parameter name="rewind" condition="int">0</parameter>
<parameter name="samples" condition="real">1.0000e+04</parameter>
<parameter name="samplesperthread" condition="real">1.0000e+04</parameter>
<parameter name="steps" condition="int">50</parameter>
<parameter name="stepsbetweensamples" condition="int">1</parameter>
<parameter name="store_configs" condition="int">0</parameter>
<parameter name="storeconfigs" condition="int">0</parameter>
<parameter name="sub_steps" condition="int">1</parameter>
<parameter name="substeps" condition="int">1</parameter>
<parameter name="tau" condition="au">5.0000e-02</parameter>
<parameter name="time_step" condition="au">5.0000e-02</parameter>
<parameter name="timestep" condition="au">5.0000e-02</parameter>
<parameter name="use_drift" condition="string">no</parameter>
<parameter name="usedrift" condition="string">no</parameter>
<parameter name="walkers" condition="int">1</parameter>
<parameter name="warmup_steps" condition="int">1000</parameter>
<parameter name="warmupsteps" condition="int">1000</parameter>
  DumpConfig==false Nothing (configurations, state) will be saved.
  Walker Samples are dumped every 1 steps.
</vmc>
    Restarting, cummulative properties:
      energy     = -2.1959e+00
      variance   = 0.0000e+00
      r2accepted = 1.0000e-10
      r2proposed = 1.0000e-10
  Set drift_modifier UNR parameter a = 1.0000e+00
  EstimatorManagerBase::add replace LocalEnergy estimator.
 Using QMCCostFunction::QMCCostFunction
 Using Default Cost Function: Cost = <|E-E_ff|^2>
  Set drift_modifier UNR parameter a = 1.0000e+00
  EstimatorManagerBase::add replace LocalEnergy estimator.
  EstimatorManagerBase::add replace LocalEnergy estimator.
entering engine_start function
<optimization-report>
<vmc stage="main" blocks="200">
  Cannot make clones again. Use existing 1 clones
  Initial partition of walkers 0 1 
Using ParameterDeriv Adjusted Guiding Function

  Using Particle by Particle moves
  Walker moves without drift
  Total Sample Size   =10000
  Walker distribution on root = 0 1 
  Anonymous Buffer size per walker : 1704 Bytes.
MEMORY increase 0 MB VMC::resetRun
====================================================
  SimpleFixedNodeBranch::finalize after a VMC block
    QMC counter        = 7
    time step          = 0.05
    reference energy   = -1.23513
    reference variance = 4.54034e-17
====================================================
  Execution time = 2.1028e-01
</vmc>
<opt stage="setup">
  <log>
     Reading configurations from h5FileRoot H4-descent.s007
  QMCCostFunction is created with 1 threads.
  Using Nonlocal PP in Opt: no
   Number of samples loaded to each thread : 10000 
Value of Filter Bool: false before_first_block_sample: true onDescentStep: true
Before engine_checkConfigurations
Double check filter inside engine_checkConfig: false
 w_tot 9.9991e+03
  VMC Eavg = -2.0187e+00
  VMC Evar = 1.7634e-01
  Total weights = 9.999096804e+03
Energy Average: -2.018725622e+00
Energy Variance: 1.763486688e-01
Weight Total: 2.000000000e+04
VGS Total: 1.999819361e+04
Energy Standard Deviation: 4.199388869e-01
Energy Standard Error: 4.199388869e-03
Target Function Average: 2.281017675e-01
Norm of Gradient Vector: 3.318337882e+00
After engine_checkConfig
  Execution time = 8.6486e-02
  </log>
</opt>
<opt stage="main" walkers="10000">
  <log>
Value of descent_num: 7
Number of Parameters: 31
Descent Number: 7
Finalization Descent Num (should be zero if not on last section): 0
Parameter Type step sizes:  TJF_2Body_eta=1.0000e-03 TJF_1Body_eta=1.0000e-033Body_eta1.0000e-04 F_eta=1.0000e-03 CI_eta=1.0000e-03 Orb_eta=1.0000e-03
Using Random
This is random alpha: 0.0000e+00 with sign: -1.0000e+00
This is random alpha: 0.0000e+00 with sign: -1.0000e+00
This is random alpha: 0.0000e+00 with sign: 1.0000e+00
This is random alpha: 0.0000e+00 with sign: -1.0000e+00
This is random alpha: 0.0000e+00 with sign: -1.0000e+00
This is random alpha: 0.0000e+00 with sign: 1.0000e+00
This is random alpha: 0.0000e+00 with sign: -1.0000e+00
This is random alpha: 0.0000e+00 with sign: 1.0000e+00
This is random alpha: 0.0000e+00 with sign: 1.0000e+00
This is random alpha: 0.0000e+00 with sign: -1.0000e+00
This is random alpha: 0.0000e+00 with sign: -1.0000e+00
[...]
ud_1       5.756625e-01                 1 1 ON  12
ud_2       3.465443e-01                 1 1 ON  13
ud_3       1.896617e-01                 1 1 ON  14
ud_4       8.747532e-02                 1 1 ON  15
ud_5       3.482162e-02                 1 1 ON  16
ud_6       3.708930e-02                 1 1 ON  17
ud_7       6.355172e-02                 1 1 ON  18
ud_8       7.720516e-02                 1 1 ON  19
ud_9       5.828843e-02                 1 1 ON  20
eH_0       1.539994e-02                 1 1 ON  21
eH_1       2.935596e-02                 1 1 ON  22
eH_2       -1.133046e-01                1 1 ON  23
eH_3       -9.452275e-02                1 1 ON  24
eH_4       -1.063167e-01                1 1 ON  25
eH_5       -7.820047e-02                1 1 ON  26
eH_6       -3.640043e-02                1 1 ON  27
eH_7       -6.827574e-03                1 1 ON  28
eH_8       8.345458e-03                 1 1 ON  29
eH_9       4.849582e-03                 1 1 ON  30
  </optVariables>
eH
Array
ud
Array
uu
Array
   Restore the number of walkers to 1, removing 0 walkers.
</opt>
</optimization-report>
  QMC Execution time = 2.9939e-01 secs
  Reusing QMCFixedSampleLinearOptimize
 Using QMCCostFunction::QMCCostFunction
 Using Default Cost Function: Cost = <|E-E_ff|^2>

=========================================================
  Start QMCFixedSampleLinearOptimize
  File Root H4-descent.s098 append = no 
=========================================================
  Skip QMCDriver::putQMCInfo 
  Resetting Properties of the walkers 1 x 14
Omega from input file: 0.0000e+00
Current collection step: -1
Target: generalized variational principle

=========================================================
  Start VMC
  File Root H4-descent.s098 append = no 
=========================================================
Using existing walkers 
  Resetting Properties of the walkers 1 x 14

<vmc function="put">
  qmc_counter=98  my_counter=0
  time step      = 5.0000e-02
  blocks         = 200
  steps          = 50
  substeps       = 1
  current        = 0
  target samples = 1.0000e+04
  walkers/mpi    = 1

  stepsbetweensamples = 1
<parameter name="blocks" condition="int">200</parameter>
<parameter name="blocks_between_recompute" condition="int">0</parameter>
<parameter name="check_properties" condition="int">100</parameter>
<parameter name="checkproperties" condition="int">100</parameter>
<parameter name="current" condition="int">0</parameter>
<parameter name="dmcwalkersperthread" condition="real">1.0000e+04</parameter>
<parameter name="fermionicweight" condition="real">1.0000e-04</parameter>
<parameter name="jastrowweight" condition="real">0.0000e+00</parameter>
<parameter name="maxcpusecs" condition="real">3.6000e+05</parameter>
<parameter name="mg_beta" condition="real">0.0000e+00</parameter>
<parameter name="mg_gamma" condition="real">0.0000e+00</parameter>
<parameter name="modifiedguiding" condition="string">ParameterDerivativeAdjusted</parameter>
<parameter name="orboptweight" condition="real">0.0000e+00</parameter>
<parameter name="record_configs" condition="int">0</parameter>
<parameter name="record_walkers" condition="int">1</parameter>
<parameter name="recordconfigs" condition="int">0</parameter>
<parameter name="recordwalkers" condition="int">1</parameter>
<parameter name="rewind" condition="int">0</parameter>
<parameter name="samples" condition="real">1.0000e+04</parameter>
<parameter name="samplesperthread" condition="real">1.0000e+04</parameter>
<parameter name="steps" condition="int">50</parameter>
<parameter name="stepsbetweensamples" condition="int">1</parameter>
<parameter name="store_configs" condition="int">0</parameter>
<parameter name="storeconfigs" condition="int">0</parameter>
<parameter name="sub_steps" condition="int">1</parameter>
<parameter name="substeps" condition="int">1</parameter>
<parameter name="tau" condition="au">5.0000e-02</parameter>
<parameter name="time_step" condition="au">5.0000e-02</parameter>
<parameter name="timestep" condition="au">5.0000e-02</parameter>
<parameter name="use_drift" condition="string">no</parameter>
<parameter name="usedrift" condition="string">no</parameter>
<parameter name="walkers" condition="int">1</parameter>
<parameter name="warmup_steps" condition="int">1000</parameter>
<parameter name="warmupsteps" condition="int">1000</parameter>
  DumpConfig==false Nothing (configurations, state) will be saved.
  Walker Samples are dumped every 1 steps.
</vmc>
    Restarting, cummulative properties:
      energy     = -2.0784e+00
      variance   = 0.0000e+00
      r2accepted = 1.0000e-10
      r2proposed = 1.0000e-10
  Set drift_modifier UNR parameter a = 1.0000e+00
  EstimatorManagerBase::add replace LocalEnergy estimator.
 Using QMCCostFunction::QMCCostFunction
 Using Default Cost Function: Cost = <|E-E_ff|^2>
  Set drift_modifier UNR parameter a = 1.0000e+00
  EstimatorManagerBase::add replace LocalEnergy estimator.
  EstimatorManagerBase::add replace LocalEnergy estimator.
entering engine_start function
<optimization-report>
<vmc stage="main" blocks="200">
  Cannot make clones again. Use existing 1 clones
  Initial partition of walkers 0 1 
Using ParameterDeriv Adjusted Guiding Function

  Using Particle by Particle moves
  Walker moves without drift
  Total Sample Size   =10000
  Walker distribution on root = 0 1 
  Anonymous Buffer size per walker : 1704 Bytes.
MEMORY increase 0 MB VMC::resetRun
====================================================
  SimpleFixedNodeBranch::finalize after a VMC block
    QMC counter        = 98
    time step          = 0.05
    reference energy   = -1.56175
    reference variance = 1.33343e-16
====================================================
  Execution time = 2.1063e-01
</vmc>
<opt stage="setup">
  <log>
     Reading configurations from h5FileRoot H4-descent.s098
  QMCCostFunction is created with 1 threads.
  Using Nonlocal PP in Opt: no
   Number of samples loaded to each thread : 10000 
Value of Filter Bool: false before_first_block_sample: true onDescentStep: true
Before engine_checkConfigurations
Double check filter inside engine_checkConfig: false
 w_tot 9.9987e+03
  VMC Eavg = -2.0468e+00
  VMC Evar = 2.0912e-01
  Total weights = 9.998701644e+03
Energy Average: -2.046842092e+00
Energy Variance: 2.086460253e-01
Weight Total: 2.000000000e+04
VGS Total: 1.999740329e+04
Energy Standard Deviation: 4.567778731e-01
Energy Standard Error: 4.567778731e-03
Target Function Average: 1.654859039e-01
Norm of Gradient Vector: 2.700429689e+00
After engine_checkConfig
  Execution time = 8.7996e-02
  </log>
</opt>
<opt stage="main" walkers="10000">
  <log>
Value of descent_num: 98
Number of Parameters: 31
Descent Number: 98
Finalization Descent Num (should be zero if not on last section): 0
Parameter Type step sizes:  TJF_2Body_eta=1.0000e-03 TJF_1Body_eta=1.0000e-033Body_eta1.0000e-04 F_eta=1.0000e-03 CI_eta=1.0000e-03 Orb_eta=1.0000e-03
Using Random
This is random alpha: 0.0000e+00 with sign: -1.0000e+00
This is random alpha: 0.0000e+00 with sign: 1.0000e+00
This is random alpha: 0.0000e+00 with sign: -1.0000e+00
This is random alpha: 0.0000e+00 with sign: -1.0000e+00
This is random alpha: 0.0000e+00 with sign: 1.0000e+00
This is random alpha: 0.0000e+00 with sign: 1.0000e+00
This is random alpha: 0.0000e+00 with sign: -1.0000e+00
This is random alpha: 0.0000e+00 with sign: -1.0000e+00
This is random alpha: 0.0000e+00 with sign: 1.0000e+00
This is random alpha: 0.0000e+00 with sign: -1.0000e+00
This is random alpha: 0.0000e+00 with sign: 1.0000e+00
This is random alpha: 0.0000e+00 with sign: -1.0000e+00
This is random alpha: 0.0000e+00 with sign: 1.0000e+00
This is random alpha: 0.0000e+00 with sign: 1.0000e+00
This is random alpha: 0.0000e+00 with sign: -1.0000e+00
This is random alpha: 0.0000e+00 with sign: -1.0000e+00
This is random alpha: 0.0000e+00 with sign: -1.0000e+00
This is random alpha: 0.0000e+00 with sign: 1.0000e+00
This is random alpha: 0.0000e+00 with sign: 1.0000e+00
This is random alpha: 0.0000e+00 with sign: -1.0000e+00
This is random alpha: 0.0000e+00 with sign: 1.0000e+00
This is random alpha: 0.0000e+00 with sign: 1.0000e+00
This is random alpha: 0.0000e+00 with sign: 1.0000e+00
This is random alpha: 0.0000e+00 with sign: -1.0000e+00
This is random alpha: 0.0000e+00 with sign: -1.0000e+00
This is random alpha: 0.0000e+00 with sign: 1.0000e+00
This is random alpha: 0.0000e+00 with sign: -1.0000e+00
This is random alpha: 0.0000e+00 with sign: -1.0000e+00
This is random alpha: 0.0000e+00 with sign: 1.0000e+00
This is random alpha: 0.0000e+00 with sign: -1.0000e+00
This is random alpha: 0.0000e+00 with sign: -1.0000e+00
  Execution time = 2.9870e-01
  </log>
  <optVariables href="H4-descent.s098.opt.xml">
CSFcoeff_1 -5.205664e-01                3 1 ON  0
uu_0       5.680176e-01                 1 1 ON  1
uu_1       3.699138e-01                 1 1 ON  2
uu_2       2.108829e-01                 1 1 ON  3
uu_3       9.267632e-02                 1 1 ON  4
uu_4       5.276940e-03                 1 1 ON  5
uu_5       -3.330962e-02                1 1 ON  6
uu_6       -2.484192e-02                1 1 ON  7
uu_7       8.603361e-03                 1 1 ON  8
uu_8       3.763565e-02                 1 1 ON  9
uu_9       2.979626e-02                 1 1 ON  10
ud_0       9.168016e-01                 1 1 ON  11
ud_1       5.756625e-01                 1 1 ON  12
ud_2       3.465443e-01                 1 1 ON  13
ud_3       1.896617e-01                 1 1 ON  14
ud_4       8.747532e-02                 1 1 ON  15
ud_5       3.482162e-02                 1 1 ON  16
ud_6       3.708930e-02                 1 1 ON  17
ud_7       6.355172e-02                 1 1 ON  18
ud_8       7.720516e-02                 1 1 ON  19
ud_9       5.828843e-02                 1 1 ON  20
eH_0       1.539994e-02                 1 1 ON  21
eH_1       2.935596e-02                 1 1 ON  22
eH_2       -1.133046e-01                1 1 ON  23
eH_3       -9.452275e-02                1 1 ON  24
eH_4       -1.063167e-01                1 1 ON  25
eH_5       -7.820047e-02                1 1 ON  26
eH_6       -3.640043e-02                1 1 ON  27
eH_7       -6.827574e-03                1 1 ON  28
eH_8       8.345458e-03                 1 1 ON  29
eH_9       4.849582e-03                 1 1 ON  30
  </optVariables>
eH
Array
ud
Array
uu
Array
   Restore the number of walkers to 1, removing 0 walkers.
</opt>
</optimization-report>
  QMC Execution time = 2.9893e-01 secs
  Reusing QMCFixedSampleLinearOptimize
 Using QMCCostFunction::QMCCostFunction
 Using Default Cost Function: Cost = <|E-E_ff|^2>

=========================================================
  Start QMCFixedSampleLinearOptimize
  File Root H4-descent.s099 append = no 
=========================================================
  Skip QMCDriver::putQMCInfo 
  Resetting Properties of the walkers 1 x 14
Omega from input file: 0.0000e+00
Current collection step: -1
Target: generalized variational principle

=========================================================
  Start VMC
  File Root H4-descent.s099 append = no 
=========================================================
Using existing walkers 
  Resetting Properties of the walkers 1 x 14

<vmc function="put">
  qmc_counter=99  my_counter=0
  time step      = 5.0000e-02
  blocks         = 200
  steps          = 50
  substeps       = 1
  current        = 0
  target samples = 1.0000e+04
  walkers/mpi    = 1

  stepsbetweensamples = 1
<parameter name="blocks" condition="int">200</parameter>
<parameter name="blocks_between_recompute" condition="int">0</parameter>
<parameter name="check_properties" condition="int">100</parameter>
<parameter name="checkproperties" condition="int">100</parameter>
<parameter name="current" condition="int">0</parameter>
<parameter name="dmcwalkersperthread" condition="real">1.0000e+04</parameter>
<parameter name="fermionicweight" condition="real">1.0000e-04</parameter>
<parameter name="jastrowweight" condition="real">0.0000e+00</parameter>
<parameter name="maxcpusecs" condition="real">3.6000e+05</parameter>
<parameter name="mg_beta" condition="real">0.0000e+00</parameter>
<parameter name="mg_gamma" condition="real">0.0000e+00</parameter>
<parameter name="modifiedguiding" condition="string">ParameterDerivativeAdjusted</parameter>
<parameter name="orboptweight" condition="real">0.0000e+00</parameter>
<parameter name="record_configs" condition="int">0</parameter>
<parameter name="record_walkers" condition="int">1</parameter>
<parameter name="recordconfigs" condition="int">0</parameter>
<parameter name="recordwalkers" condition="int">1</parameter>
<parameter name="rewind" condition="int">0</parameter>
<parameter name="samples" condition="real">1.0000e+04</parameter>
<parameter name="samplesperthread" condition="real">1.0000e+04</parameter>
<parameter name="steps" condition="int">50</parameter>
<parameter name="stepsbetweensamples" condition="int">1</parameter>
<parameter name="store_configs" condition="int">0</parameter>
<parameter name="storeconfigs" condition="int">0</parameter>
<parameter name="sub_steps" condition="int">1</parameter>
<parameter name="substeps" condition="int">1</parameter>
<parameter name="tau" condition="au">5.0000e-02</parameter>
<parameter name="time_step" condition="au">5.0000e-02</parameter>
<parameter name="timestep" condition="au">5.0000e-02</parameter>
<parameter name="use_drift" condition="string">no</parameter>
<parameter name="usedrift" condition="string">no</parameter>
<parameter name="walkers" condition="int">1</parameter>
<parameter name="warmup_steps" condition="int">1000</parameter>
<parameter name="warmupsteps" condition="int">1000</parameter>
  DumpConfig==false Nothing (configurations, state) will be saved.
  Walker Samples are dumped every 1 steps.
</vmc>
    Restarting, cummulative properties:
      energy     = -2.0731e+00
      variance   = 0.0000e+00
      r2accepted = 1.0000e-10
      r2proposed = 1.0000e-10
  Set drift_modifier UNR parameter a = 1.0000e+00
  EstimatorManagerBase::add replace LocalEnergy estimator.
 Using QMCCostFunction::QMCCostFunction
 Using Default Cost Function: Cost = <|E-E_ff|^2>
  Set drift_modifier UNR parameter a = 1.0000e+00
  EstimatorManagerBase::add replace LocalEnergy estimator.
  EstimatorManagerBase::add replace LocalEnergy estimator.
entering engine_start function
<optimization-report>
<vmc stage="main" blocks="200">
  Cannot make clones again. Use existing 1 clones
  Initial partition of walkers 0 1 
Using ParameterDeriv Adjusted Guiding Function

  Using Particle by Particle moves
  Walker moves without drift
  Total Sample Size   =10000
  Walker distribution on root = 0 1 
  Anonymous Buffer size per walker : 1704 Bytes.
MEMORY increase 0 MB VMC::resetRun
====================================================
  SimpleFixedNodeBranch::finalize after a VMC block
    QMC counter        = 99
    time step          = 0.05
    reference energy   = -2.03563
    reference variance = 3.61411e-16
====================================================
  Execution time = 2.0989e-01
</vmc>
<opt stage="setup">
  <log>
     Reading configurations from h5FileRoot H4-descent.s099
  QMCCostFunction is created with 1 threads.
  Using Nonlocal PP in Opt: no
   Number of samples loaded to each thread : 10000 
Value of Filter Bool: false before_first_block_sample: true onDescentStep: true
Before engine_checkConfigurations
Double check filter inside engine_checkConfig: false
 w_tot 9.9988e+03
  VMC Eavg = -2.1232e+00
  VMC Evar = 1.7256e-01
  Total weights = 9.998774003e+03
Energy Average: -2.123183922e+00
Energy Variance: 1.721480929e-01
Weight Total: 2.000000000e+04
VGS Total: 1.999754801e+04
Energy Standard Deviation: 4.149073305e-01
Energy Standard Error: 4.149073305e-03
Target Function Average: 9.982736637e-02
Norm of Gradient Vector: 1.484707885e+00
After engine_checkConfig
  Execution time = 8.8235e-02
  </log>
</opt>
<opt stage="main" walkers="10000">
  <log>
Value of descent_num: 99
Number of Parameters: 31
Descent Number: 99
Finalization Descent Num (should be zero if not on last section): 0
Parameter Type step sizes:  TJF_2Body_eta=1.0000e-03 TJF_1Body_eta=1.0000e-033Body_eta1.0000e-04 F_eta=1.0000e-03 CI_eta=1.0000e-03 Orb_eta=1.0000e-03
Using Random
This is random alpha: 0.0000e+00 with sign: -1.0000e+00
This is random alpha: 0.0000e+00 with sign: 1.0000e+00
This is random alpha: 0.0000e+00 with sign: -1.0000e+00
This is random alpha: 0.0000e+00 with sign: 1.0000e+00
This is random alpha: 0.0000e+00 with sign: 1.0000e+00
This is random alpha: 0.0000e+00 with sign: -1.0000e+00
This is random alpha: 0.0000e+00 with sign: -1.0000e+00
This is random alpha: 0.0000e+00 with sign: -1.0000e+00
This is random alpha: 0.0000e+00 with sign: 1.0000e+00
This is random alpha: 0.0000e+00 with sign: 1.0000e+00
This is random alpha: 0.0000e+00 with sign: -1.0000e+00
This is random alpha: 0.0000e+00 with sign: 1.0000e+00
This is random alpha: 0.0000e+00 with sign: 1.0000e+00
This is random alpha: 0.0000e+00 with sign: 1.0000e+00
This is random alpha: 0.0000e+00 with sign: -1.0000e+00
This is random alpha: 0.0000e+00 with sign: -1.0000e+00
This is random alpha: 0.0000e+00 with sign: 1.0000e+00
This is random alpha: 0.0000e+00 with sign: -1.0000e+00
This is random alpha: 0.0000e+00 with sign: 1.0000e+00
This is random alpha: 0.0000e+00 with sign: 1.0000e+00
This is random alpha: 0.0000e+00 with sign: -1.0000e+00
This is random alpha: 0.0000e+00 with sign: 1.0000e+00
This is random alpha: 0.0000e+00 with sign: -1.0000e+00
This is random alpha: 0.0000e+00 with sign: 1.0000e+00
This is random alpha: 0.0000e+00 with sign: -1.0000e+00
This is random alpha: 0.0000e+00 with sign: 1.0000e+00
This is random alpha: 0.0000e+00 with sign: -1.0000e+00
This is random alpha: 0.0000e+00 with sign: -1.0000e+00
This is random alpha: 0.0000e+00 with sign: 1.0000e+00
This is random alpha: 0.0000e+00 with sign: 1.0000e+00
This is random alpha: 0.0000e+00 with sign: -1.0000e+00
  Execution time = 2.9820e-01
  </log>
  <optVariables href="H4-descent.s099.opt.xml">
CSFcoeff_1 -5.205664e-01                3 1 ON  0
uu_0       5.680176e-01                 1 1 ON  1
uu_1       3.699138e-01                 1 1 ON  2
uu_2       2.108829e-01                 1 1 ON  3
uu_3       9.267632e-02                 1 1 ON  4
uu_4       5.276940e-03                 1 1 ON  5
uu_5       -3.330962e-02                1 1 ON  6
uu_6       -2.484192e-02                1 1 ON  7
uu_7       8.603361e-03                 1 1 ON  8
uu_8       3.763565e-02                 1 1 ON  9
uu_9       2.979626e-02                 1 1 ON  10
ud_0       9.168016e-01                 1 1 ON  11
ud_1       5.756625e-01                 1 1 ON  12
ud_2       3.465443e-01                 1 1 ON  13
ud_3       1.896617e-01                 1 1 ON  14
ud_4       8.747532e-02                 1 1 ON  15
ud_5       3.482162e-02                 1 1 ON  16
ud_6       3.708930e-02                 1 1 ON  17
ud_7       6.355172e-02                 1 1 ON  18
ud_8       7.720516e-02                 1 1 ON  19
ud_9       5.828843e-02                 1 1 ON  20
eH_0       1.539994e-02                 1 1 ON  21
eH_1       2.935596e-02                 1 1 ON  22
eH_2       -1.133046e-01                1 1 ON  23
eH_3       -9.452275e-02                1 1 ON  24
eH_4       -1.063167e-01                1 1 ON  25
eH_5       -7.820047e-02                1 1 ON  26
eH_6       -3.640043e-02                1 1 ON  27
eH_7       -6.827574e-03                1 1 ON  28
eH_8       8.345458e-03                 1 1 ON  29
eH_9       4.849582e-03                 1 1 ON  30
  </optVariables>
eH
Array
ud
Array
uu
Array
   Restore the number of walkers to 1, removing 0 walkers.
</opt>
</optimization-report>
  QMC Execution time = 2.9850e-01 secs
  Total Execution time = 3.0125e+01 secs

=========================================================
  A new xml input file : H4-descent.s099.cont.xml
