Rank =    0  Free Memory =  3548 MB
  Input file(s): optm-descent.xml 

=====================================================
                    QMCPACK 3.7.9

       (c) Copyright 2003-  QMCPACK developers

                    Please cite:
 J. Kim et al. J. Phys. Cond. Mat. 30 195901 (2018)
      https://doi.org/10.1088/1361-648X/aab9c3

  Git branch: gvp
  Last git commit: f13eaba26d553d060e4d37a84a67d74cf1e6c0d8-dirty
  Last git commit date: Wed Aug 18 14:32:28 2021 -0700
  Last git commit subject: off by one bug fixed, temporary Jastrow fix
=====================================================
  Global options 

  Total number of MPI ranks = 1
  Number of MPI groups      = 1
  MPI group ID              = 0
  Number of ranks in group  = 1
  MPI ranks per node        = 1
  OMP 1st level threads     = 1
  OMP nested threading disabled or only 1 thread on the 2nd level

  Precision used in this calculation, see definitions in the manual:
  Base precision      = double
  Full precision      = double

  Structure-of-arrays (SoA) optimization enabled

  Input XML = optm-descent.xml

  Project = H4-descent
  date    = 2021-08-18 15:33:35 PDT
  host    = connie-Thelio

 Random Number
 -------------
  Offset for the random number seeds from input file (mod 1024): 651

  Range of prime numbers to use as seeds over processors and threads = 4877-4889


 Particle Set 
 ------------
  Name: e
  All the species have the same mass 1
  Particle set size: 4

 Particle Set 
 ------------
  Name: ion0
  All the species have the same mass 1
  Particle set size: 4

 Wavefunction setup: 
 ------------------- 
  Name: psi0
  Created SPOSet builder named 'LCAOBSet' of type molecularorbital
  LCAO: SoaAtomicBasisSet<MultiQuintic,0>
  AO BasisSet for H
   Angular momentum expanded in cartesian functions x^lx y^ly z^lz according to Gamess
Using log grid with default values: ri = 1e-06 rf = 100 npts = 1001
   R(n,l,m,s) 0 0 0 0
Expanding Ylm (angular function) according to Gamess using cartesian gaussians
Adding 1 cartesian gaussian orbitals for l= 0
  Setting cutoff radius 8.62979

   Maximum Angular Momentum  = 0
   Number of Radial functors = 1
   Basis size                = 1

Creating SPOSet in SlaterDetBuilder::put(xmlNodePtr cur).
spo_name = spo-up
  Building SPOSet 'spo-up' with 'LCAOBSet' basis set.
Creating SPOSet in SlaterDetBuilder::put(xmlNodePtr cur).
spo_name = spo-dn
  Building SPOSet 'spo-dn' with 'LCAOBSet' basis set.
Using Bryan's algorithm for MultiSlaterDeterminant expansion. 
Creating base determinant (up) for MSD expansion. 
Creating base determinant (down) for MSD expansion. 
Found determinant list. 
Reading CSFs.
Found 2 terms in the MSD expansion.
Norm of ci vector (sum of ci^2): 0.638005
Norm of qchem ci vector (sum of qchem_ci^2): 0.990143
Found 2 unique up determinants.
Found 2 unique down determinants.
Number of terms in pairs array: 1
Number of terms in pairs array: 1
CI coefficients are optimizable. 
  FermionWF = MultiSlaterDeterminantFast

   Jastrow
   -------
    Name: J2   Type: Two-Body   Function: Bspline

    Radial function for species: u - u
     Number of parameters: 10
     Cusp: -0.25
     Cutoff radius: 10

     Name                        Value Type Recompute Use Index
     ---- ---------------------------- ---- --------- --- -----
     uu_0                 5.680176e-01    1         1  ON     0
     uu_1                 3.699138e-01    1         1  ON     1
     uu_2                 2.108829e-01    1         1  ON     2
     uu_3                 9.267632e-02    1         1  ON     3
     uu_4                 5.276940e-03    1         1  ON     4
     uu_5                -3.330962e-02    1         1  ON     5
     uu_6                -2.484192e-02    1         1  ON     6
     uu_7                 8.603361e-03    1         1  ON     7
     uu_8                 3.763565e-02    1         1  ON     8
     uu_9                 2.979626e-02    1         1  ON     9

    Radial function for species: u - d
     Number of parameters: 10
     Cusp: -5.000000e-01
     Cutoff radius: 1.000000e+01

     Name                        Value Type Recompute Use Index
     ---- ---------------------------- ---- --------- --- -----
     ud_0                 9.168016e-01    1         1  ON     0
     ud_1                 5.756625e-01    1         1  ON     1
     ud_2                 3.465443e-01    1         1  ON     2
     ud_3                 1.896617e-01    1         1  ON     3
     ud_4                 8.747532e-02    1         1  ON     4
     ud_5                 3.482162e-02    1         1  ON     5
     ud_6                 3.708930e-02    1         1  ON     6
     ud_7                 6.355172e-02    1         1  ON     7
     ud_8                 7.720516e-02    1         1  ON     8
     ud_9                 5.828843e-02    1         1  ON     9


   Jastrow
   -------
    Name: J1   Type: One-Body   Function: Bspline

    Radial function for element: H
     Number of parameters: 10
     Cusp: 1.000000e+00
     Cutoff radius: 5.000000e+00

     Name                        Value Type Recompute Use Index
     ---- ---------------------------- ---- --------- --- -----
     eH_0                 1.539994e-02    1         1  ON     0
     eH_1                 2.935596e-02    1         1  ON     1
     eH_2                -1.133046e-01    1         1  ON     2
     eH_3                -9.452275e-02    1         1  ON     3
     eH_4                -1.063167e-01    1         1  ON     4
     eH_5                -7.820047e-02    1         1  ON     5
     eH_6                -3.640043e-02    1         1  ON     6
     eH_7                -6.827574e-03    1         1  ON     7
     eH_8                 8.345458e-03    1         1  ON     8
     eH_9                 4.849582e-03    1         1  ON     9

  QMCHamiltonian::addOperator Kinetic to H, physical Hamiltonian 
  QMCHamiltonian::addOperator ElecElec to H, physical Hamiltonian 
QMCHamiltonian::addOperatorType added type coulomb named ElecElec
  QMCHamiltonian::addOperator IonElec to H, physical Hamiltonian 
QMCHamiltonian::addOperatorType added type coulomb named IonElec
  QMCHamiltonian::addOperator IonIon to H, physical Hamiltonian 
QMCHamiltonian::addOperatorType added type coulomb named IonIon

  QMCHamiltonian::add2WalkerProperty added
    4 to P::PropertyList 
    0 to P::Collectables 
    starting Index of the observables in P::PropertyList = 10
ParticleSetPool::randomize 
  Initialization Execution time = 3.2046e-03 secs
=========================================================
 Summary of QMC systems 
=========================================================
ParticleSetPool has: 

  ParticleSet 'e' contains 4 particles :  u(2) d(2)

    u  1.0958951042e+00  5.1427708436e-01 -1.4428370103e+00
    u  6.0611124208e-01 -1.7216487456e-01 -7.7962973208e-01
    d -6.4575975825e-01  9.9108864642e-01  1.8564835946e-01
    d -7.5318592612e-02  2.7134132518e-01 -1.1765509155e+00

  Distance table for dissimilar particles (A-B):
    source: ion0  target: e
    Using structure-of-arrays (SoA) data layout
    Distance computations use open boundary conditions in 3D.

  Distance table for similar particles (A-A):
    source/target: e
    Using structure-of-arrays (SoA) data layout
    Distance computations use open boundary conditions in 3D.


  ParticleSet 'ion0' contains 4 particles :  H(4)

    H  0.0000000000e+00  0.0000000000e+00  0.0000000000e+00
    H  1.8897259877e+00  0.0000000000e+00  0.0000000000e+00
    H  0.0000000000e+00  0.0000000000e+00  2.8345889816e+00
    H  0.0000000000e+00  0.0000000000e+00  5.6691779632e+00

  Distance table for similar particles (A-A):
    source/target: ion0
    Using structure-of-arrays (SoA) data layout
    Distance computations use open boundary conditions in 3D.


  Hamiltonian h0
  Kinetic         Kinetic energy
  ElecElec        CoulombAB source=e

  IonElec         CoulombAA source/target ion0

  IonIon          CoulombAA source/target ion0


Loop execution max-interations = 100
Inside LM engine constructor, num_params is: 0 and _total_num_params is: 0

=========================================================
  Start QMCFixedSampleLinearOptimize
  File Root H4-descent.s000 append = no 
=========================================================
  Skip QMCDriver::putQMCInfo 
  Resetting Properties of the walkers 1 x 14
Omega from input file: 0.0000000000e+00
Current collection step: -1
Target: generalized variational principle
Omega from input file: 0.0000000000e+00
Current collection step: -1
Target: generalized variational principle
  Adding 1 walkers to 0 existing sets
  Total number of walkers: 1.0000000000e+00
  Total weight: 1.0000000000e+00

=========================================================
  Start VMC
  File Root H4-descent.s000 append = no 
=========================================================
Resetting walkers
  Using the current 1 walkers.
  Total number of walkers: 1.0000000000e+00
  Total weight: 1.0000000000e+00
  Resetting Properties of the walkers 1 x 14

<vmc function="put">
  qmc_counter=0  my_counter=0
  time step      = 5.0000000000e-02
  blocks         = 200
  steps          = 50
  substeps       = 1
  current        = 0
  target samples = 1.0000000000e+04
  walkers/mpi    = 1

  stepsbetweensamples = 1
<parameter name="blocks" condition="int">200</parameter>
<parameter name="blocks_between_recompute" condition="int">0</parameter>
<parameter name="check_properties" condition="int">100</parameter>
<parameter name="checkproperties" condition="int">100</parameter>
<parameter name="current" condition="int">0</parameter>
<parameter name="dmcwalkersperthread" condition="real">1.0000000000e+04</parameter>
<parameter name="fermionicweight" condition="real">1.0000000000e-04</parameter>
<parameter name="jastrowweight" condition="real">0.0000000000e+00</parameter>
<parameter name="maxcpusecs" condition="real">3.6000000000e+05</parameter>
<parameter name="mg_beta" condition="real">0.0000000000e+00</parameter>
<parameter name="mg_gamma" condition="real">0.0000000000e+00</parameter>
<parameter name="modifiedguiding" condition="string">ParameterDerivativeAdjusted</parameter>
<parameter name="orboptweight" condition="real">0.0000000000e+00</parameter>
<parameter name="record_configs" condition="int">0</parameter>
<parameter name="record_walkers" condition="int">1</parameter>
<parameter name="recordconfigs" condition="int">0</parameter>
<parameter name="recordwalkers" condition="int">1</parameter>
<parameter name="rewind" condition="int">0</parameter>
<parameter name="samples" condition="real">1.0000000000e+04</parameter>
<parameter name="samplesperthread" condition="real">1.0000000000e+04</parameter>
<parameter name="steps" condition="int">50</parameter>
<parameter name="stepsbetweensamples" condition="int">1</parameter>
<parameter name="store_configs" condition="int">0</parameter>
<parameter name="storeconfigs" condition="int">0</parameter>
<parameter name="sub_steps" condition="int">1</parameter>
<parameter name="substeps" condition="int">1</parameter>
<parameter name="tau" condition="au">5.0000000000e-02</parameter>
<parameter name="time_step" condition="au">5.0000000000e-02</parameter>
<parameter name="timestep" condition="au">5.0000000000e-02</parameter>
<parameter name="use_drift" condition="string">no</parameter>
<parameter name="usedrift" condition="string">no</parameter>
<parameter name="walkers" condition="int">1</parameter>
<parameter name="warmup_steps" condition="int">1000</parameter>
<parameter name="warmupsteps" condition="int">1000</parameter>
  DumpConfig==false Nothing (configurations, state) will be saved.
  Walker Samples are dumped every 1 steps.
</vmc>
  Set drift_modifier UNR parameter a = 1.0000000000e+00
  EstimatorManagerBase::add replace LocalEnergy estimator.
 Using QMCCostFunction::QMCCostFunction
 Using Default Cost Function: Cost = <|E-E_ff|^2>
  Set drift_modifier UNR parameter a = 1.0000000000e+00
  EstimatorManagerBase::add replace LocalEnergy estimator.
entering engine_start function
<optimization-report>
<vmc stage="main" blocks="200">
  Initial partition of walkers 0 1 
Using ParameterDeriv Adjusted Guiding Function

  Using Particle by Particle moves
  Walker moves without drift
  Total Sample Size   =10000
  Walker distribution on root = 0 1 
  Anonymous Buffer size per walker : 1704 Bytes.
MEMORY increase 0 MB VMC::resetRun
====================================================
  SimpleFixedNodeBranch::finalize after a VMC block
    QMC counter        = 0
    time step          = 0.05
    reference energy   = -2.15273
    reference variance = 1.01631e-17
====================================================
  Execution time = 2.2139e-01
</vmc>
<opt stage="setup">
  <log>
     Reading configurations from h5FileRoot H4-descent.s000
  QMCCostFunction is created with 1 threads.
  Using Nonlocal PP in Opt: no
   Number of samples loaded to each thread : 10000 
Value of Filter Bool: false before_first_block_sample: true onDescentStep: true
Before engine_checkConfigurations
Double check filter inside engine_checkConfig: false
 w_tot 9.9961e+03
  VMC Eavg = -1.8588e+00
  VMC Evar = 3.6463e-01
  Total weights = 9.996080421e+03
Energy Average: -1.858785948e+00
Energy Variance: 3.641583654e-01
Weight Total: 2.000000000e+04
VGS Total: 1.999216084e+04
Energy Standard Deviation: 6.034553550e-01
Energy Standard Error: 6.034553550e-03
Target Function Average: 5.605844412e-01
Norm of Gradient Vector: 7.846500831e+00
After engine_checkConfig
  Execution time = 8.9572e-02
  </log>
</opt>
<opt stage="main" walkers="10000">
  <log>
Value of descent_num: 0
Should only happen on first descent step
This is num_params_: 31
Number of Parameters: 31
Descent Number: 0
Finalization Descent Num (should be zero if not on last section): 0
Parameter Type step sizes:  TJF_2Body_eta=1.0000e-03 TJF_1Body_eta=1.0000e-033Body_eta1.0000e-04 F_eta=1.0000e-03 CI_eta=1.0000e-03 Orb_eta=1.0000e-03
Using Steepest Descent
  Execution time = 3.1100e-01
  </log>
  <optVariables href="H4-descent.s000.opt.xml">
CSFcoeff_1 -4.926647e-01                3 1 ON  0
uu_0       5.686390e-01                 1 1 ON  1
uu_1       3.734784e-01                 1 1 ON  2
uu_2       2.114501e-01                 1 1 ON  3
uu_3       1.005979e-01                 1 1 ON  4
uu_4       3.968748e-03                 1 1 ON  5
uu_5       -3.613530e-02                1 1 ON  6
uu_6       -2.371990e-02                1 1 ON  7
uu_7       4.064139e-03                 1 1 ON  8
uu_8       3.461961e-02                 1 1 ON  9
uu_9       2.804531e-02                 1 1 ON  10
ud_0       9.185911e-01                 1 1 ON  11
ud_1       5.838536e-01                 1 1 ON  12
ud_2       3.382017e-01                 1 1 ON  13
ud_3       1.916507e-01                 1 1 ON  14
ud_4       1.061854e-01                 1 1 ON  15
ud_5       3.148445e-02                 1 1 ON  16
ud_6       3.359414e-02                 1 1 ON  17
ud_7       5.223645e-02                 1 1 ON  18
ud_8       7.415925e-02                 1 1 ON  19
ud_9       5.595984e-02                 1 1 ON  20
eH_0       2.042938e-02                 1 1 ON  21
eH_1       2.634213e-02                 1 1 ON  22
eH_2       -8.349417e-02                1 1 ON  23
eH_3       -1.029925e-01                1 1 ON  24
eH_4       -1.257383e-01                1 1 ON  25
eH_5       -9.745162e-02                1 1 ON  26
eH_6       -3.540919e-02                1 1 ON  27
eH_7       4.067512e-02                 1 1 ON  28
eH_8       1.493763e-02                 1 1 ON  29
eH_9       2.871223e-03                 1 1 ON  30
  </optVariables>
eH
Array
ud
Array
uu
Array
   Restore the number of walkers to 1, removing 0 walkers.
</opt>
</optimization-report>
  QMC Execution time = 3.1129e-01 secs
  Reusing QMCFixedSampleLinearOptimize
 Using QMCCostFunction::QMCCostFunction
 Using Default Cost Function: Cost = <|E-E_ff|^2>

=========================================================
  Start QMCFixedSampleLinearOptimize
  File Root H4-descent.s001 append = no 
=========================================================
  Skip QMCDriver::putQMCInfo 
  Resetting Properties of the walkers 1 x 14
Omega from input file: 0.0000e+00
Current collection step: -1
Target: generalized variational principle

=========================================================
  Start VMC
  File Root H4-descent.s001 append = no 
=========================================================
Using existing walkers 
  Resetting Properties of the walkers 1 x 14

<vmc function="put">
  qmc_counter=1  my_counter=0
  time step      = 5.0000e-02
  blocks         = 200
  steps          = 50
  substeps       = 1
  current        = 0
  target samples = 1.0000e+04
  walkers/mpi    = 1

  stepsbetweensamples = 1
<parameter name="blocks" condition="int">200</parameter>
<parameter name="blocks_between_recompute" condition="int">0</parameter>
<parameter name="check_properties" condition="int">100</parameter>
<parameter name="checkproperties" condition="int">100</parameter>
<parameter name="current" condition="int">0</parameter>
<parameter name="dmcwalkersperthread" condition="real">1.0000e+04</parameter>
<parameter name="fermionicweight" condition="real">1.0000e-04</parameter>
<parameter name="jastrowweight" condition="real">0.0000e+00</parameter>
<parameter name="maxcpusecs" condition="real">3.6000e+05</parameter>
<parameter name="mg_beta" condition="real">0.0000e+00</parameter>
<parameter name="mg_gamma" condition="real">0.0000e+00</parameter>
<parameter name="modifiedguiding" condition="string">ParameterDerivativeAdjusted</parameter>
<parameter name="orboptweight" condition="real">0.0000e+00</parameter>
<parameter name="record_configs" condition="int">0</parameter>
<parameter name="record_walkers" condition="int">1</parameter>
<parameter name="recordconfigs" condition="int">0</parameter>
<parameter name="recordwalkers" condition="int">1</parameter>
<parameter name="rewind" condition="int">0</parameter>
<parameter name="samples" condition="real">1.0000e+04</parameter>
<parameter name="samplesperthread" condition="real">1.0000e+04</parameter>
<parameter name="steps" condition="int">50</parameter>
<parameter name="stepsbetweensamples" condition="int">1</parameter>
<parameter name="store_configs" condition="int">0</parameter>
<parameter name="storeconfigs" condition="int">0</parameter>
<parameter name="sub_steps" condition="int">1</parameter>
<parameter name="substeps" condition="int">1</parameter>
<parameter name="tau" condition="au">5.0000e-02</parameter>
<parameter name="time_step" condition="au">5.0000e-02</parameter>
<parameter name="timestep" condition="au">5.0000e-02</parameter>
<parameter name="use_drift" condition="string">no</parameter>
<parameter name="usedrift" condition="string">no</parameter>
<parameter name="walkers" condition="int">1</parameter>
<parameter name="warmup_steps" condition="int">1000</parameter>
<parameter name="warmupsteps" condition="int">1000</parameter>
  DumpConfig==false Nothing (configurations, state) will be saved.
  Walker Samples are dumped every 1 steps.
</vmc>
    Restarting, cummulative properties:
      energy     = -2.1527e+00
      variance   = 0.0000e+00
      r2accepted = 1.0000e-10
      r2proposed = 1.0000e-10
  Set drift_modifier UNR parameter a = 1.0000e+00
  EstimatorManagerBase::add replace LocalEnergy estimator.
 Using QMCCostFunction::QMCCostFunction
 Using Default Cost Function: Cost = <|E-E_ff|^2>
  Set drift_modifier UNR parameter a = 1.0000e+00
  EstimatorManagerBase::add replace LocalEnergy estimator.
  EstimatorManagerBase::add replace LocalEnergy estimator.
entering engine_start function
<optimization-report>
<vmc stage="main" blocks="200">
  Cannot make clones again. Use existing 1 clones
  Initial partition of walkers 0 1 
Using ParameterDeriv Adjusted Guiding Function

  Using Particle by Particle moves
  Walker moves without drift
  Total Sample Size   =10000
  Walker distribution on root = 0 1 
  Anonymous Buffer size per walker : 1704 Bytes.
MEMORY increase 0 MB VMC::resetRun
====================================================
  SimpleFixedNodeBranch::finalize after a VMC block
    QMC counter        = 1
    time step          = 0.05
    reference energy   = -2.72301
    reference variance = -3.24026e-16
====================================================
  Execution time = 2.1157e-01
</vmc>
<opt stage="setup">
  <log>
     Reading configurations from h5FileRoot H4-descent.s001
  QMCCostFunction is created with 1 threads.
  Using Nonlocal PP in Opt: no
   Number of samples loaded to each thread : 10000 
Value of Filter Bool: false before_first_block_sample: true onDescentStep: true
Before engine_checkConfigurations
Double check filter inside engine_checkConfig: false
 w_tot 9.9991e+03
  VMC Eavg = -2.0951e+00
  VMC Evar = 2.5533e-01
  Total weights = 9.999088078e+03
Energy Average: -2.095138044e+00
Energy Variance: 2.553046739e-01
Weight Total: 2.000000000e+04
VGS Total: 1.999817616e+04
Energy Standard Deviation: 5.052768289e-01
Energy Standard Error: 5.052768289e-03
Target Function Average: 1.545849380e-01
Norm of Gradient Vector: 2.178210745e+00
After engine_checkConfig
  Execution time = 8.5754e-02
  </log>
</opt>
<opt stage="main" walkers="10000">
  <log>
Value of descent_num: 1
Number of Parameters: 31
Descent Number: 1
Finalization Descent Num (should be zero if not on last section): 0
Parameter Type step sizes:  TJF_2Body_eta=1.0000e-03 TJF_1Body_eta=1.0000e-033Body_eta1.0000e-04 F_eta=1.0000e-03 CI_eta=1.0000e-03 Orb_eta=1.0000e-03
Using Steepest Descent
  Execution time = 2.9735e-01
  </log>
  <optVariables href="H4-descent.s001.opt.xml">
CSFcoeff_1 -4.813428e-01                3 1 ON  0
uu_0       5.683587e-01                 1 1 ON  1
uu_1       3.734279e-01                 1 1 ON  2
uu_2       2.097232e-01                 1 1 ON  3
uu_3       1.035527e-01                 1 1 ON  4
uu_4       4.216731e-03                 1 1 ON  5
uu_5       -3.947922e-02                1 1 ON  6
uu_6       -2.376384e-02                1 1 ON  7
uu_7       4.325455e-03                 1 1 ON  8
uu_8       3.529579e-02                 1 1 ON  9
uu_9       3.002404e-02                 1 1 ON  10
ud_0       9.178120e-01                 1 1 ON  11
ud_1       5.796344e-01                 1 1 ON  12
ud_2       3.453496e-01                 1 1 ON  13
ud_3       1.823749e-01                 1 1 ON  14
ud_4       1.069731e-01                 1 1 ON  15
ud_5       3.772710e-02                 1 1 ON  16
ud_6       3.231755e-02                 1 1 ON  17
ud_7       5.077005e-02                 1 1 ON  18
ud_8       7.784445e-02                 1 1 ON  19
ud_9       5.685973e-02                 1 1 ON  20
eH_0       1.859536e-02                 1 1 ON  21
eH_1       1.707016e-02                 1 1 ON  22
eH_2       -6.584051e-02                1 1 ON  23
eH_3       -1.079425e-01                1 1 ON  24
eH_4       -1.303592e-01                1 1 ON  25
eH_5       -1.038789e-01                1 1 ON  26
eH_6       -3.436736e-02                1 1 ON  27
eH_7       3.729795e-02                 1 1 ON  28
eH_8       3.543437e-02                 1 1 ON  29
eH_9       -1.313264e-02                1 1 ON  30
  </optVariables>
eH
Array
ud
Array
uu
Array
   Restore the number of walkers to 1, removing 0 walkers.
</opt>
</optimization-report>
  QMC Execution time = 2.9758e-01 secs
  Reusing QMCFixedSampleLinearOptimize
 Using QMCCostFunction::QMCCostFunction
 Using Default Cost Function: Cost = <|E-E_ff|^2>

=========================================================
  Start QMCFixedSampleLinearOptimize
  File Root H4-descent.s002 append = no 
=========================================================
  Skip QMCDriver::putQMCInfo 
  Resetting Properties of the walkers 1 x 14
Omega from input file: 0.0000e+00
Current collection step: -1
Target: generalized variational principle

=========================================================
  Start VMC
  File Root H4-descent.s002 append = no 
=========================================================
Using existing walkers 
  Resetting Properties of the walkers 1 x 14

<vmc function="put">
  qmc_counter=2  my_counter=0
  time step      = 5.0000e-02
  blocks         = 200
  steps          = 50
  substeps       = 1
  current        = 0
  target samples = 1.0000e+04
  walkers/mpi    = 1

  stepsbetweensamples = 1
<parameter name="blocks" condition="int">200</parameter>
<parameter name="blocks_between_recompute" condition="int">0</parameter>
<parameter name="check_properties" condition="int">100</parameter>
<parameter name="checkproperties" condition="int">100</parameter>
<parameter name="current" condition="int">0</parameter>
<parameter name="dmcwalkersperthread" condition="real">1.0000e+04</parameter>
<parameter name="fermionicweight" condition="real">1.0000e-04</parameter>
<parameter name="jastrowweight" condition="real">0.0000e+00</parameter>
<parameter name="maxcpusecs" condition="real">3.6000e+05</parameter>
<parameter name="mg_beta" condition="real">0.0000e+00</parameter>
<parameter name="mg_gamma" condition="real">0.0000e+00</parameter>
<parameter name="modifiedguiding" condition="string">ParameterDerivativeAdjusted</parameter>
<parameter name="orboptweight" condition="real">0.0000e+00</parameter>
<parameter name="record_configs" condition="int">0</parameter>
<parameter name="record_walkers" condition="int">1</parameter>
<parameter name="recordconfigs" condition="int">0</parameter>
<parameter name="recordwalkers" condition="int">1</parameter>
<parameter name="rewind" condition="int">0</parameter>
<parameter name="samples" condition="real">1.0000e+04</parameter>
<parameter name="samplesperthread" condition="real">1.0000e+04</parameter>
<parameter name="steps" condition="int">50</parameter>
<parameter name="stepsbetweensamples" condition="int">1</parameter>
<parameter name="store_configs" condition="int">0</parameter>
<parameter name="storeconfigs" condition="int">0</parameter>
<parameter name="sub_steps" condition="int">1</parameter>
<parameter name="substeps" condition="int">1</parameter>
<parameter name="tau" condition="au">5.0000e-02</parameter>
<parameter name="time_step" condition="au">5.0000e-02</parameter>
<parameter name="timestep" condition="au">5.0000e-02</parameter>
<parameter name="use_drift" condition="string">no</parameter>
<parameter name="usedrift" condition="string">no</parameter>
<parameter name="walkers" condition="int">1</parameter>
<parameter name="warmup_steps" condition="int">1000</parameter>
<parameter name="warmupsteps" condition="int">1000</parameter>
  DumpConfig==false Nothing (configurations, state) will be saved.
  Walker Samples are dumped every 1 steps.
</vmc>
    Restarting, cummulative properties:
      energy     = -2.4379e+00
      variance   = 0.0000e+00
      r2accepted = 1.0000e-10
      r2proposed = 1.0000e-10
  Set drift_modifier UNR parameter a = 1.0000e+00
  EstimatorManagerBase::add replace LocalEnergy estimator.
 Using QMCCostFunction::QMCCostFunction
 Using Default Cost Function: Cost = <|E-E_ff|^2>
  Set drift_modifier UNR parameter a = 1.0000e+00
  EstimatorManagerBase::add replace LocalEnergy estimator.
  EstimatorManagerBase::add replace LocalEnergy estimator.
entering engine_start function
<optimization-report>
<vmc stage="main" blocks="200">
  Cannot make clones again. Use existing 1 clones
  Initial partition of walkers 0 1 
Using ParameterDeriv Adjusted Guiding Function

  Using Particle by Particle moves
  Walker moves without drift
  Total Sample Size   =10000
  Walker distribution on root = 0 1 
  Anonymous Buffer size per walker : 1704 Bytes.
MEMORY increase 0 MB VMC::resetRun
====================================================
  SimpleFixedNodeBranch::finalize after a VMC block
    QMC counter        = 2
    time step          = 0.05
    reference energy   = -1.25116
    reference variance = -6.33638e-18
====================================================
  Execution time = 2.1029e-01
</vmc>
<opt stage="setup">
  <log>
     Reading configurations from h5FileRoot H4-descent.s002
  QMCCostFunction is created with 1 threads.
  Using Nonlocal PP in Opt: no
   Number of samples loaded to each thread : 10000 
Value of Filter Bool: false before_first_block_sample: true onDescentStep: true
Before engine_checkConfigurations
Double check filter inside engine_checkConfig: false
 w_tot 9.9991e+03
  VMC Eavg = -2.0693e+00
  VMC Evar = 2.7971e-01
  Total weights = 9.999103505e+03
Energy Average: -2.069339728e+00
Energy Variance: 2.797346329e-01
Weight Total: 2.000000000e+04
VGS Total: 1.999820701e+04
Energy Standard Deviation: 5.288994545e-01
Energy Standard Error: 5.288994545e-03
Target Function Average: 2.261407601e-01
Norm of Gradient Vector: 3.097807060e+00
After engine_checkConfig
  Execution time = 8.6899e-02
  </log>
</opt>
<opt stage="main" walkers="10000">
  <log>
Value of descent_num: 2
Number of Parameters: 31
Descent Number: 2
Finalization Descent Num (should be zero if not on last section): 0
Parameter Type step sizes:  TJF_2Body_eta=1.0000e-03 TJF_1Body_eta=1.0000e-033Body_eta1.0000e-04 F_eta=1.0000e-03 CI_eta=1.0000e-03 Orb_eta=1.0000e-03
Using Steepest Descent
  Execution time = 2.9721e-01
  </log>
  <optVariables href="H4-descent.s002.opt.xml">
CSFcoeff_1 -4.672262e-01                3 1 ON  0
uu_0       5.682821e-01                 1 1 ON  1
uu_1       3.715858e-01                 1 1 ON  2
uu_2       2.087440e-01                 1 1 ON  3
uu_3       1.028567e-01                 1 1 ON  4
uu_4       7.335093e-03                 1 1 ON  5
uu_5       -3.526330e-02                1 1 ON  6
uu_6       -2.243809e-02                1 1 ON  7
uu_7       3.489409e-03                 1 1 ON  8
uu_8       2.904282e-02                 1 1 ON  9
uu_9       3.122652e-02                 1 1 ON  10
ud_0       9.161792e-01                 1 1 ON  11
ud_1       5.737552e-01                 1 1 ON  12
ud_2       3.511430e-01                 1 1 ON  13
ud_3       1.861376e-01                 1 1 ON  14
ud_4       1.065911e-01                 1 1 ON  15
ud_5       3.487780e-02                 1 1 ON  16
ud_6       3.022507e-02                 1 1 ON  17
ud_7       5.338995e-02                 1 1 ON  18
ud_8       7.987014e-02                 1 1 ON  19
ud_9       5.452687e-02                 1 1 ON  20
eH_0       2.538048e-02                 1 1 ON  21
eH_1       5.808159e-03                 1 1 ON  22
eH_2       -7.258413e-02                1 1 ON  23
eH_3       -9.989768e-02                1 1 ON  24
eH_4       -1.171764e-01                1 1 ON  25
eH_5       -1.118094e-01                1 1 ON  26
eH_6       -2.603373e-02                1 1 ON  27
eH_7       1.527475e-02                 1 1 ON  28
eH_8       2.339344e-02                 1 1 ON  29
eH_9       1.243259e-02                 1 1 ON  30
  </optVariables>
eH
Array
ud
Array
uu
Array
   Restore the number of walkers to 1, removing 0 walkers.
</opt>
</optimization-report>
  QMC Execution time = 2.9746e-01 secs
  Reusing QMCFixedSampleLinearOptimize
 Using QMCCostFunction::QMCCostFunction
 Using Default Cost Function: Cost = <|E-E_ff|^2>

=========================================================
  Start QMCFixedSampleLinearOptimize
  File Root H4-descent.s003 append = no 
=========================================================
  Skip QMCDriver::putQMCInfo 
  Resetting Properties of the walkers 1 x 14
Omega from input file: 0.0000e+00
Current collection step: -1
Target: generalized variational principle

=========================================================
  Start VMC
  File Root H4-descent.s003 append = no 
=========================================================
Using existing walkers 
  Resetting Properties of the walkers 1 x 14

<vmc function="put">
  qmc_counter=3  my_counter=0
  time step      = 5.0000e-02
  blocks         = 200
  steps          = 50
  substeps       = 1
  current        = 0
  target samples = 1.0000e+04
  walkers/mpi    = 1

  stepsbetweensamples = 1
<parameter name="blocks" condition="int">200</parameter>
<parameter name="blocks_between_recompute" condition="int">0</parameter>
<parameter name="check_properties" condition="int">100</parameter>
<parameter name="checkproperties" condition="int">100</parameter>
<parameter name="current" condition="int">0</parameter>
<parameter name="dmcwalkersperthread" condition="real">1.0000e+04</parameter>
<parameter name="fermionicweight" condition="real">1.0000e-04</parameter>
<parameter name="jastrowweight" condition="real">0.0000e+00</parameter>
<parameter name="maxcpusecs" condition="real">3.6000e+05</parameter>
<parameter name="mg_beta" condition="real">0.0000e+00</parameter>
<parameter name="mg_gamma" condition="real">0.0000e+00</parameter>
<parameter name="modifiedguiding" condition="string">ParameterDerivativeAdjusted</parameter>
<parameter name="orboptweight" condition="real">0.0000e+00</parameter>
<parameter name="record_configs" condition="int">0</parameter>
<parameter name="record_walkers" condition="int">1</parameter>
<parameter name="recordconfigs" condition="int">0</parameter>
<parameter name="recordwalkers" condition="int">1</parameter>
<parameter name="rewind" condition="int">0</parameter>
<parameter name="samples" condition="real">1.0000e+04</parameter>
<parameter name="samplesperthread" condition="real">1.0000e+04</parameter>
<parameter name="steps" condition="int">50</parameter>
<parameter name="stepsbetweensamples" condition="int">1</parameter>
<parameter name="store_configs" condition="int">0</parameter>
<parameter name="storeconfigs" condition="int">0</parameter>
<parameter name="sub_steps" condition="int">1</parameter>
<parameter name="substeps" condition="int">1</parameter>
<parameter name="tau" condition="au">5.0000e-02</parameter>
<parameter name="time_step" condition="au">5.0000e-02</parameter>
<parameter name="timestep" condition="au">5.0000e-02</parameter>
<parameter name="use_drift" condition="string">no</parameter>
<parameter name="usedrift" condition="string">no</parameter>
<parameter name="walkers" condition="int">1</parameter>
<parameter name="warmup_steps" condition="int">1000</parameter>
<parameter name="warmupsteps" condition="int">1000</parameter>
  DumpConfig==false Nothing (configurations, state) will be saved.
  Walker Samples are dumped every 1 steps.
</vmc>
    Restarting, cummulative properties:
      energy     = -2.0423e+00
      variance   = 0.0000e+00
      r2accepted = 1.0000e-10
      r2proposed = 1.0000e-10
  Set drift_modifier UNR parameter a = 1.0000e+00
  EstimatorManagerBase::add replace LocalEnergy estimator.
 Using QMCCostFunction::QMCCostFunction
 Using Default Cost Function: Cost = <|E-E_ff|^2>
  Set drift_modifier UNR parameter a = 1.0000e+00
  EstimatorManagerBase::add replace LocalEnergy estimator.
  EstimatorManagerBase::add replace LocalEnergy estimator.
entering engine_start function
<optimization-report>
<vmc stage="main" blocks="200">
  Cannot make clones again. Use existing 1 clones
  Initial partition of walkers 0 1 
Using ParameterDeriv Adjusted Guiding Function

  Using Particle by Particle moves
  Walker moves without drift
  Total Sample Size   =10000
  Walker distribution on root = 0 1 
  Anonymous Buffer size per walker : 1704 Bytes.
MEMORY increase 0 MB VMC::resetRun
====================================================
  SimpleFixedNodeBranch::finalize after a VMC block
    QMC counter        = 3
    time step          = 0.05
    reference energy   = -3.2509
    reference variance = 5.74247e-16
====================================================
  Execution time = 2.1153e-01
</vmc>
<opt stage="setup">
  <log>
     Reading configurations from h5FileRoot H4-descent.s003
  QMCCostFunction is created with 1 threads.
  Using Nonlocal PP in Opt: no
   Number of samples loaded to each thread : 10000 
Value of Filter Bool: false before_first_block_sample: true onDescentStep: true
Before engine_checkConfigurations
Double check filter inside engine_checkConfig: false
 w_tot 9.9985e+03
  VMC Eavg = -2.0660e+00
  VMC Evar = 2.7652e-01
  Total weights = 9.998484300e+03
Energy Average: -2.065983134e+00
Energy Variance: 2.760178789e-01
Weight Total: 2.000000000e+04
VGS Total: 1.999696860e+04
Energy Standard Deviation: 5.253740371e-01
Energy Standard Error: 5.253740371e-03
Target Function Average: 2.434379353e-01
Norm of Gradient Vector: 3.098342766e+00
After engine_checkConfig
  Execution time = 8.5467e-02
  </log>
</opt>
<opt stage="main" walkers="10000">
  <log>
Value of descent_num: 3
Number of Parameters: 31
Descent Number: 3
Finalization Descent Num (should be zero if not on last section): 0
Parameter Type step sizes:  TJF_2Body_eta=1.0000e-03 TJF_1Body_eta=1.0000e-033Body_eta1.0000e-04 F_eta=1.0000e-03 CI_eta=1.0000e-03 Orb_eta=1.0000e-03
Using Steepest Descent
  Execution time = 2.9702e-01
  </log>
  <optVariables href="H4-descent.s003.opt.xml">
CSFcoeff_1 -4.550413e-01                3 1 ON  0
uu_0       5.685611e-01                 1 1 ON  1
uu_1       3.724834e-01                 1 1 ON  2
uu_2       2.096648e-01                 1 1 ON  3
uu_3       1.094807e-01                 1 1 ON  4
uu_4       2.317859e-03                 1 1 ON  5
uu_5       -3.948375e-02                1 1 ON  6
uu_6       -1.925021e-02                1 1 ON  7
uu_7       8.244041e-03                 1 1 ON  8
uu_8       2.505202e-02                 1 1 ON  9
uu_9       2.820580e-02                 1 1 ON  10
ud_0       9.150650e-01                 1 1 ON  11
ud_1       5.742109e-01                 1 1 ON  12
ud_2       3.568775e-01                 1 1 ON  13
ud_3       1.792926e-01                 1 1 ON  14
ud_4       1.090183e-01                 1 1 ON  15
ud_5       3.801019e-02                 1 1 ON  16
ud_6       3.170386e-02                 1 1 ON  17
ud_7       5.441140e-02                 1 1 ON  18
ud_8       7.461308e-02                 1 1 ON  19
ud_9       5.413673e-02                 1 1 ON  20
eH_0       2.289209e-02                 1 1 ON  21
eH_1       2.394885e-02                 1 1 ON  22
eH_2       -9.176939e-02                1 1 ON  23
eH_3       -9.911614e-02                1 1 ON  24
eH_4       -1.056893e-01                1 1 ON  25
eH_5       -9.580536e-02                1 1 ON  26
eH_6       -4.973346e-02                1 1 ON  27
eH_7       3.373652e-02                 1 1 ON  28
eH_8       2.035882e-02                 1 1 ON  29
eH_9       9.637508e-03                 1 1 ON  30
  </optVariables>
eH
Array
ud
Array
uu
Array
   Restore the number of walkers to 1, removing 0 walkers.
</opt>
</optimization-report>
  QMC Execution time = 2.9723e-01 secs
  Reusing QMCFixedSampleLinearOptimize
 Using QMCCostFunction::QMCCostFunction
 Using Default Cost Function: Cost = <|E-E_ff|^2>

=========================================================
  Start QMCFixedSampleLinearOptimize
  File Root H4-descent.s004 append = no 
=========================================================
  Skip QMCDriver::putQMCInfo 
  Resetting Properties of the walkers 1 x 14
Omega from input file: 0.0000e+00
Current collection step: -1
Target: generalized variational principle

=========================================================
  Start VMC
  File Root H4-descent.s004 append = no 
=========================================================
Using existing walkers 
  Resetting Properties of the walkers 1 x 14

<vmc function="put">
  qmc_counter=4  my_counter=0
  time step      = 5.0000e-02
  blocks         = 200
  steps          = 50
  substeps       = 1
  current        = 0
  target samples = 1.0000e+04
  walkers/mpi    = 1

  stepsbetweensamples = 1
<parameter name="blocks" condition="int">200</parameter>
<parameter name="blocks_between_recompute" condition="int">0</parameter>
<parameter name="check_properties" condition="int">100</parameter>
<parameter name="checkproperties" condition="int">100</parameter>
<parameter name="current" condition="int">0</parameter>
<parameter name="dmcwalkersperthread" condition="real">1.0000e+04</parameter>
<parameter name="fermionicweight" condition="real">1.0000e-04</parameter>
<parameter name="jastrowweight" condition="real">0.0000e+00</parameter>
<parameter name="maxcpusecs" condition="real">3.6000e+05</parameter>
<parameter name="mg_beta" condition="real">0.0000e+00</parameter>
<parameter name="mg_gamma" condition="real">0.0000e+00</parameter>
<parameter name="modifiedguiding" condition="string">ParameterDerivativeAdjusted</parameter>
<parameter name="orboptweight" condition="real">0.0000e+00</parameter>
<parameter name="record_configs" condition="int">0</parameter>
<parameter name="record_walkers" condition="int">1</parameter>
<parameter name="recordconfigs" condition="int">0</parameter>
<parameter name="recordwalkers" condition="int">1</parameter>
<parameter name="rewind" condition="int">0</parameter>
<parameter name="samples" condition="real">1.0000e+04</parameter>
<parameter name="samplesperthread" condition="real">1.0000e+04</parameter>
<parameter name="steps" condition="int">50</parameter>
<parameter name="stepsbetweensamples" condition="int">1</parameter>
<parameter name="store_configs" condition="int">0</parameter>
<parameter name="storeconfigs" condition="int">0</parameter>
<parameter name="sub_steps" condition="int">1</parameter>
<parameter name="substeps" condition="int">1</parameter>
<parameter name="tau" condition="au">5.0000e-02</parameter>
<parameter name="time_step" condition="au">5.0000e-02</parameter>
<parameter name="timestep" condition="au">5.0000e-02</parameter>
<parameter name="use_drift" condition="string">no</parameter>
<parameter name="usedrift" condition="string">no</parameter>
<parameter name="walkers" condition="int">1</parameter>
<parameter name="warmup_steps" condition="int">1000</parameter>
<parameter name="warmupsteps" condition="int">1000</parameter>
  DumpConfig==false Nothing (configurations, state) will be saved.
  Walker Samples are dumped every 1 steps.
</vmc>
    Restarting, cummulative properties:
      energy     = -2.3444e+00
      variance   = 0.0000e+00
      r2accepted = 1.0000e-10
      r2proposed = 1.0000e-10
  Set drift_modifier UNR parameter a = 1.0000e+00
  EstimatorManagerBase::add replace LocalEnergy estimator.
 Using QMCCostFunction::QMCCostFunction
 Using Default Cost Function: Cost = <|E-E_ff|^2>
  Set drift_modifier UNR parameter a = 1.0000e+00
  EstimatorManagerBase::add replace LocalEnergy estimator.
  EstimatorManagerBase::add replace LocalEnergy estimator.
entering engine_start function
<optimization-report>
<vmc stage="main" blocks="200">
  Cannot make clones again. Use existing 1 clones
  Initial partition of walkers 0 1 
Using ParameterDeriv Adjusted Guiding Function

  Using Particle by Particle moves
  Walker moves without drift
  Total Sample Size   =10000
  Walker distribution on root = 0 1 
  Anonymous Buffer size per walker : 1704 Bytes.
MEMORY increase 0 MB VMC::resetRun
====================================================
  SimpleFixedNodeBranch::finalize after a VMC block
    QMC counter        = 4
    time step          = 0.05
    reference energy   = -2.01412
    reference variance = -5.07993e-16
====================================================
  Execution time = 2.1035e-01
</vmc>
<opt stage="setup">
  <log>
     Reading configurations from h5FileRoot H4-descent.s004
  QMCCostFunction is created with 1 threads.
  Using Nonlocal PP in Opt: no
   Number of samples loaded to each thread : 10000 
Value of Filter Bool: false before_first_block_sample: true onDescentStep: true
Before engine_checkConfigurations
Double check filter inside engine_checkConfig: false
 w_tot 9.9989e+03
  VMC Eavg = -2.0420e+00
  VMC Evar = 2.1502e-01
  Total weights = 9.998876714e+03
Energy Average: -2.041956068e+00
Energy Variance: 2.150365213e-01
Weight Total: 2.000000000e+04
VGS Total: 1.999775343e+04
Energy Standard Deviation: 4.637203050e-01
Energy Standard Error: 4.637203050e-03
Target Function Average: 1.958088209e-01
Norm of Gradient Vector: 2.505422084e+00
After engine_checkConfig
  Execution time = 8.6052e-02
  </log>
</opt>
<opt stage="main" walkers="10000">
  <log>
Value of descent_num: 4
Number of Parameters: 31
Descent Number: 4
Finalization Descent Num (should be zero if not on last section): 0
Parameter Type step sizes:  TJF_2Body_eta=1.0000e-03 TJF_1Body_eta=1.0000e-033Body_eta1.0000e-04 F_eta=1.0000e-03 CI_eta=1.0000e-03 Orb_eta=1.0000e-03
Using Steepest Descent
  Execution time = 2.9643e-01
  </log>
  <optVariables href="H4-descent.s004.opt.xml">
CSFcoeff_1 -4.406148e-01                3 1 ON  0
uu_0       5.682786e-01                 1 1 ON  1
uu_1       3.735538e-01                 1 1 ON  2
uu_2       2.097395e-01                 1 1 ON  3
uu_3       1.077783e-01                 1 1 ON  4
uu_4       9.242727e-03                 1 1 ON  5
uu_5       -4.082570e-02                1 1 ON  6
uu_6       -2.174599e-02                1 1 ON  7
uu_7       7.773544e-03                 1 1 ON  8
uu_8       2.590271e-02                 1 1 ON  9
uu_9       2.522615e-02                 1 1 ON  10
ud_0       9.109937e-01                 1 1 ON  11
ud_1       5.682287e-01                 1 1 ON  12
ud_2       3.675879e-01                 1 1 ON  13
ud_3       1.852998e-01                 1 1 ON  14
ud_4       1.026301e-01                 1 1 ON  15
ud_5       3.829394e-02                 1 1 ON  16
ud_6       2.750444e-02                 1 1 ON  17
ud_7       5.533150e-02                 1 1 ON  18
ud_8       7.656579e-02                 1 1 ON  19
ud_9       5.623311e-02                 1 1 ON  20
eH_0       2.396903e-02                 1 1 ON  21
eH_1       4.547810e-02                 1 1 ON  22
eH_2       -1.099276e-01                1 1 ON  23
eH_3       -1.103155e-01                1 1 ON  24
eH_4       -1.047095e-01                1 1 ON  25
eH_5       -8.663331e-02                1 1 ON  26
eH_6       -6.476295e-02                1 1 ON  27
eH_7       4.258440e-02                 1 1 ON  28
eH_8       3.031483e-02                 1 1 ON  29
eH_9       8.591580e-03                 1 1 ON  30
  </optVariables>
eH
Array
ud
Array
uu
Array
   Restore the number of walkers to 1, removing 0 walkers.
</opt>
</optimization-report>
  QMC Execution time = 2.9664e-01 secs
  Reusing QMCFixedSampleLinearOptimize
 Using QMCCostFunction::QMCCostFunction
 Using Default Cost Function: Cost = <|E-E_ff|^2>

=========================================================
  Start QMCFixedSampleLinearOptimize
  File Root H4-descent.s005 append = no 
=========================================================
  Skip QMCDriver::putQMCInfo 
  Resetting Properties of the walkers 1 x 14
Omega from input file: 0.0000e+00
Current collection step: -1
Target: generalized variational principle

=========================================================
  Start VMC
  File Root H4-descent.s005 append = no 
=========================================================
Using existing walkers 
  Resetting Properties of the walkers 1 x 14

<vmc function="put">
  qmc_counter=5  my_counter=0
  time step      = 5.0000e-02
  blocks         = 200
  steps          = 50
  substeps       = 1
  current        = 0
  target samples = 1.0000e+04
  walkers/mpi    = 1

  stepsbetweensamples = 1
<parameter name="blocks" condition="int">200</parameter>
<parameter name="blocks_between_recompute" condition="int">0</parameter>
<parameter name="check_properties" condition="int">100</parameter>
<parameter name="checkproperties" condition="int">100</parameter>
<parameter name="current" condition="int">0</parameter>
<parameter name="dmcwalkersperthread" condition="real">1.0000e+04</parameter>
<parameter name="fermionicweight" condition="real">1.0000e-04</parameter>
<parameter name="jastrowweight" condition="real">0.0000e+00</parameter>
<parameter name="maxcpusecs" condition="real">3.6000e+05</parameter>
<parameter name="mg_beta" condition="real">0.0000e+00</parameter>
<parameter name="mg_gamma" condition="real">0.0000e+00</parameter>
<parameter name="modifiedguiding" condition="string">ParameterDerivativeAdjusted</parameter>
<parameter name="orboptweight" condition="real">0.0000e+00</parameter>
<parameter name="record_configs" condition="int">0</parameter>
<parameter name="record_walkers" condition="int">1</parameter>
<parameter name="recordconfigs" condition="int">0</parameter>
<parameter name="recordwalkers" condition="int">1</parameter>
<parameter name="rewind" condition="int">0</parameter>
<parameter name="samples" condition="real">1.0000e+04</parameter>
<parameter name="samplesperthread" condition="real">1.0000e+04</parameter>
<parameter name="steps" condition="int">50</parameter>
<parameter name="stepsbetweensamples" condition="int">1</parameter>
<parameter name="store_configs" condition="int">0</parameter>
<parameter name="storeconfigs" condition="int">0</parameter>
<parameter name="sub_steps" condition="int">1</parameter>
<parameter name="substeps" condition="int">1</parameter>
<parameter name="tau" condition="au">5.0000e-02</parameter>
<parameter name="time_step" condition="au">5.0000e-02</parameter>
<parameter name="timestep" condition="au">5.0000e-02</parameter>
<parameter name="use_drift" condition="string">no</parameter>
<parameter name="usedrift" condition="string">no</parameter>
<parameter name="walkers" condition="int">1</parameter>
<parameter name="warmup_steps" condition="int">1000</parameter>
<parameter name="warmupsteps" condition="int">1000</parameter>
  DumpConfig==false Nothing (configurations, state) will be saved.
  Walker Samples are dumped every 1 steps.
</vmc>
    Restarting, cummulative properties:
      energy     = -2.2784e+00
      variance   = 0.0000e+00
      r2accepted = 1.0000e-10
      r2proposed = 1.0000e-10
  Set drift_modifier UNR parameter a = 1.0000e+00
  EstimatorManagerBase::add replace LocalEnergy estimator.
 Using QMCCostFunction::QMCCostFunction
 Using Default Cost Function: Cost = <|E-E_ff|^2>
  Set drift_modifier UNR parameter a = 1.0000e+00
  EstimatorManagerBase::add replace LocalEnergy estimator.
  EstimatorManagerBase::add replace LocalEnergy estimator.
entering engine_start function
<optimization-report>
<vmc stage="main" blocks="200">
  Cannot make clones again. Use existing 1 clones
  Initial partition of walkers 0 1 
Using ParameterDeriv Adjusted Guiding Function

  Using Particle by Particle moves
  Walker moves without drift
  Total Sample Size   =10000
  Walker distribution on root = 0 1 
  Anonymous Buffer size per walker : 1704 Bytes.
MEMORY increase 0 MB VMC::resetRun
====================================================
  SimpleFixedNodeBranch::finalize after a VMC block
    QMC counter        = 5
    time step          = 0.05
    reference energy   = -1.03772
    reference variance = 3.00067e-18
====================================================
  Execution time = 2.1062e-01
</vmc>
<opt stage="setup">
  <log>
     Reading configurations from h5FileRoot H4-descent.s005
  QMCCostFunction is created with 1 threads.
  Using Nonlocal PP in Opt: no
   Number of samples loaded to each thread : 10000 
Value of Filter Bool: false before_first_block_sample: true onDescentStep: true
Before engine_checkConfigurations
Double check filter inside engine_checkConfig: false
 w_tot 9.9990e+03
  VMC Eavg = -2.0567e+00
  VMC Evar = 2.4667e-01
  Total weights = 9.998980458e+03
Energy Average: -2.056710763e+00
Energy Variance: 2.466905988e-01
Weight Total: 2.000000000e+04
VGS Total: 1.999796092e+04
Energy Standard Deviation: 4.966795736e-01
Energy Standard Error: 4.966795736e-03
Target Function Average: 1.806025576e-01
Norm of Gradient Vector: 2.505139835e+00
After engine_checkConfig
  Execution time = 8.6869e-02
  </log>
</opt>
<opt stage="main" walkers="10000">
  <log>
Value of descent_num: 5
Number of Parameters: 31
Descent Number: 5
Finalization Descent Num (should be zero if not on last section): 0
Parameter Type step sizes:  TJF_2Body_eta=1.0000e-03 TJF_1Body_eta=1.0000e-033Body_eta1.0000e-04 F_eta=1.0000e-03 CI_eta=1.0000e-03 Orb_eta=1.0000e-03
Using Steepest Descent
  Execution time = 2.9751e-01
  </log>
  <optVariables href="H4-descent.s005.opt.xml">
CSFcoeff_1 -4.251411e-01                3 1 ON  0
uu_0       5.683149e-01                 1 1 ON  1
uu_1       3.734708e-01                 1 1 ON  2
uu_2       2.101626e-01                 1 1 ON  3
uu_3       1.076233e-01                 1 1 ON  4
uu_4       1.260556e-02                 1 1 ON  5
uu_5       -4.313164e-02                1 1 ON  6
uu_6       -2.161431e-02                1 1 ON  7
uu_7       6.577629e-03                 1 1 ON  8
uu_8       2.474428e-02                 1 1 ON  9
uu_9       2.622964e-02                 1 1 ON  10
ud_0       9.087489e-01                 1 1 ON  11
ud_1       5.706033e-01                 1 1 ON  12
ud_2       3.627348e-01                 1 1 ON  13
ud_3       1.887575e-01                 1 1 ON  14
ud_4       9.951243e-02                 1 1 ON  15
ud_5       3.895261e-02                 1 1 ON  16
ud_6       2.814459e-02                 1 1 ON  17
ud_7       6.014862e-02                 1 1 ON  18
ud_8       7.971407e-02                 1 1 ON  19
ud_9       5.070677e-02                 1 1 ON  20
eH_0       2.893417e-02                 1 1 ON  21
eH_1       4.535582e-02                 1 1 ON  22
eH_2       -1.147730e-01                1 1 ON  23
eH_3       -1.234639e-01                1 1 ON  24
eH_4       -1.098386e-01                1 1 ON  25
eH_5       -7.848875e-02                1 1 ON  26
eH_6       -4.170870e-02                1 1 ON  27
eH_7       2.843014e-02                 1 1 ON  28
eH_8       1.837753e-02                 1 1 ON  29
eH_9       2.400405e-02                 1 1 ON  30
  </optVariables>
eH
Array
ud
Array
uu
Array
   Restore the number of walkers to 1, removing 0 walkers.
</opt>
</optimization-report>
  QMC Execution time = 2.9777e-01 secs
  Reusing QMCFixedSampleLinearOptimize
 Using QMCCostFunction::QMCCostFunction
 Using Default Cost Function: Cost = <|E-E_ff|^2>

=========================================================
  Start QMCFixedSampleLinearOptimize
  File Root H4-descent.s006 append = no 
=========================================================
  Skip QMCDriver::putQMCInfo 
  Resetting Properties of the walkers 1 x 14
Omega from input file: 0.0000e+00
Current collection step: -1
Target: generalized variational principle

=========================================================
  Start VMC
  File Root H4-descent.s006 append = no 
=========================================================
Using existing walkers 
  Resetting Properties of the walkers 1 x 14

<vmc function="put">
  qmc_counter=6  my_counter=0
  time step      = 5.0000e-02
  blocks         = 200
  steps          = 50
  substeps       = 1
  current        = 0
  target samples = 1.0000e+04
  walkers/mpi    = 1

  stepsbetweensamples = 1
<parameter name="blocks" condition="int">200</parameter>
<parameter name="blocks_between_recompute" condition="int">0</parameter>
<parameter name="check_properties" condition="int">100</parameter>
<parameter name="checkproperties" condition="int">100</parameter>
<parameter name="current" condition="int">0</parameter>
<parameter name="dmcwalkersperthread" condition="real">1.0000e+04</parameter>
<parameter name="fermionicweight" condition="real">1.0000e-04</parameter>
<parameter name="jastrowweight" condition="real">0.0000e+00</parameter>
<parameter name="maxcpusecs" condition="real">3.6000e+05</parameter>
<parameter name="mg_beta" condition="real">0.0000e+00</parameter>
<parameter name="mg_gamma" condition="real">0.0000e+00</parameter>
<parameter name="modifiedguiding" condition="string">ParameterDerivativeAdjusted</parameter>
<parameter name="orboptweight" condition="real">0.0000e+00</parameter>
<parameter name="record_configs" condition="int">0</parameter>
<parameter name="record_walkers" condition="int">1</parameter>
<parameter name="recordconfigs" condition="int">0</parameter>
<parameter name="recordwalkers" condition="int">1</parameter>
<parameter name="rewind" condition="int">0</parameter>
<parameter name="samples" condition="real">1.0000e+04</parameter>
<parameter name="samplesperthread" condition="real">1.0000e+04</parameter>
<parameter name="steps" condition="int">50</parameter>
<parameter name="stepsbetweensamples" condition="int">1</parameter>
<parameter name="store_configs" condition="int">0</parameter>
<parameter name="storeconfigs" condition="int">0</parameter>
<parameter name="sub_steps" condition="int">1</parameter>
<parameter name="substeps" condition="int">1</parameter>
<parameter name="tau" condition="au">5.0000e-02</parameter>
<parameter name="time_step" condition="au">5.0000e-02</parameter>
<parameter name="timestep" condition="au">5.0000e-02</parameter>
<parameter name="use_drift" condition="string">no</parameter>
<parameter name="usedrift" condition="string">no</parameter>
<parameter name="walkers" condition="int">1</parameter>
<parameter name="warmup_steps" condition="int">1000</parameter>
<parameter name="warmupsteps" condition="int">1000</parameter>
  DumpConfig==false Nothing (configurations, state) will be saved.
  Walker Samples are dumped every 1 steps.
</vmc>
    Restarting, cummulative properties:
      energy     = -2.0716e+00
      variance   = 0.0000e+00
      r2accepted = 1.0000e-10
      r2proposed = 1.0000e-10
  Set drift_modifier UNR parameter a = 1.0000e+00
  EstimatorManagerBase::add replace LocalEnergy estimator.
 Using QMCCostFunction::QMCCostFunction
 Using Default Cost Function: Cost = <|E-E_ff|^2>
  Set drift_modifier UNR parameter a = 1.0000e+00
  EstimatorManagerBase::add replace LocalEnergy estimator.
  EstimatorManagerBase::add replace LocalEnergy estimator.
entering engine_start function
<optimization-report>
<vmc stage="main" blocks="200">
  Cannot make clones again. Use existing 1 clones
  Initial partition of walkers 0 1 
Using ParameterDeriv Adjusted Guiding Function

  Using Particle by Particle moves
  Walker moves without drift
  Total Sample Size   =10000
  Walker distribution on root = 0 1 
  Anonymous Buffer size per walker : 1704 Bytes.
MEMORY increase 0 MB VMC::resetRun
====================================================
  SimpleFixedNodeBranch::finalize after a VMC block
    QMC counter        = 6
    time step          = 0.05
    reference energy   = -1.48806
    reference variance = -3.63856e-17
====================================================
  Execution time = 2.1438e-01
</vmc>
<opt stage="setup">
  <log>
     Reading configurations from h5FileRoot H4-descent.s006
  QMCCostFunction is created with 1 threads.
  Using Nonlocal PP in Opt: no
   Number of samples loaded to each thread : 10000 
Value of Filter Bool: false before_first_block_sample: true onDescentStep: true
Before engine_checkConfigurations
Double check filter inside engine_checkConfig: false
 w_tot 9.9989e+03
  VMC Eavg = -2.0816e+00
  VMC Evar = 2.1443e-01
  Total weights = 9.998904714e+03
Energy Average: -2.081566962e+00
Energy Variance: 2.144175123e-01
Weight Total: 2.000000000e+04
VGS Total: 1.999780943e+04
Energy Standard Deviation: 4.630523861e-01
Energy Standard Error: 4.630523861e-03
Target Function Average: 1.447930679e-01
Norm of Gradient Vector: 1.996742495e+00
After engine_checkConfig
  Execution time = 8.6447e-02
  </log>
</opt>
<opt stage="main" walkers="10000">
  <log>
Value of descent_num: 6
Number of Parameters: 31
Descent Number: 6
Finalization Descent Num (should be zero if not on last section): 0
Parameter Type step sizes:  TJF_2Body_eta=1.0000e-03 TJF_1Body_eta=1.0000e-033Body_eta1.0000e-04 F_eta=1.0000e-03 CI_eta=1.0000e-03 Orb_eta=1.0000e-03
Using Steepest Descent
  Execution time = 3.0086e-01
  </log>
  <optVariables href="H4-descent.s006.opt.xml">
CSFcoeff_1 -4.109748e-01                3 1 ON  0
uu_0       5.688117e-01                 1 1 ON  1
uu_1       3.760120e-01                 1 1 ON  2
uu_2       2.127703e-01                 1 1 ON  3
uu_3       1.038088e-01                 1 1 ON  4
uu_4       1.500562e-02                 1 1 ON  5
uu_5       -4.239636e-02                1 1 ON  6
uu_6       -1.881424e-02                1 1 ON  7
uu_7       -1.479730e-04                1 1 ON  8
uu_8       2.399402e-02                 1 1 ON  9
uu_9       2.588088e-02                 1 1 ON  10
ud_0       9.103247e-01                 1 1 ON  11
ud_1       5.719426e-01                 1 1 ON  12
ud_2       3.620950e-01                 1 1 ON  13
ud_3       1.888420e-01                 1 1 ON  14
ud_4       9.889310e-02                 1 1 ON  15
ud_5       4.012851e-02                 1 1 ON  16
ud_6       2.800046e-02                 1 1 ON  17
ud_7       6.057285e-02                 1 1 ON  18
ud_8       7.516725e-02                 1 1 ON  19
ud_9       5.053554e-02                 1 1 ON  20
eH_0       3.501874e-02                 1 1 ON  21
eH_1       3.909933e-02                 1 1 ON  22
eH_2       -1.102811e-01                1 1 ON  23
eH_3       -1.312942e-01                1 1 ON  24
eH_4       -9.381742e-02                1 1 ON  25
eH_5       -8.502420e-02                1 1 ON  26
eH_6       -3.039003e-02                1 1 ON  27
eH_7       2.788064e-02                 1 1 ON  28
eH_8       -3.679386e-03                1 1 ON  29
eH_9       3.173695e-02                 1 1 ON  30
  </optVariables>
eH
Array
ud
Array
uu
Array
   Restore the number of walkers to 1, removing 0 walkers.
</opt>
</optimization-report>
  QMC Execution time = 3.0109e-01 secs
  Reusing QMCFixedSampleLinearOptimize
 Using QMCCostFunction::QMCCostFunction
 Using Default Cost Function: Cost = <|E-E_ff|^2>

=========================================================
  Start QMCFixedSampleLinearOptimize
  File Root H4-descent.s007 append = no 
=========================================================
  Skip QMCDriver::putQMCInfo 
  Resetting Properties of the walkers 1 x 14
Omega from input file: 0.0000e+00
Current collection step: -1
Target: generalized variational principle

=========================================================
  Start VMC
  File Root H4-descent.s007 append = no 
=========================================================
Using existing walkers 
  Resetting Properties of the walkers 1 x 14

<vmc function="put">
  qmc_counter=7  my_counter=0
  time step      = 5.0000e-02
  blocks         = 200
  steps          = 50
  substeps       = 1
  current        = 0
  target samples = 1.0000e+04
  walkers/mpi    = 1

  stepsbetweensamples = 1
<parameter name="blocks" condition="int">200</parameter>
<parameter name="blocks_between_recompute" condition="int">0</parameter>
<parameter name="check_properties" condition="int">100</parameter>
<parameter name="checkproperties" condition="int">100</parameter>
<parameter name="current" condition="int">0</parameter>
<parameter name="dmcwalkersperthread" condition="real">1.0000e+04</parameter>
<parameter name="fermionicweight" condition="real">1.0000e-04</parameter>
<parameter name="jastrowweight" condition="real">0.0000e+00</parameter>
<parameter name="maxcpusecs" condition="real">3.6000e+05</parameter>
<parameter name="mg_beta" condition="real">0.0000e+00</parameter>
<parameter name="mg_gamma" condition="real">0.0000e+00</parameter>
<parameter name="modifiedguiding" condition="string">ParameterDerivativeAdjusted</parameter>
<parameter name="orboptweight" condition="real">0.0000e+00</parameter>
<parameter name="record_configs" condition="int">0</parameter>
<parameter name="record_walkers" condition="int">1</parameter>
<parameter name="recordconfigs" condition="int">0</parameter>
<parameter name="recordwalkers" condition="int">1</parameter>
<parameter name="rewind" condition="int">0</parameter>
<parameter name="samples" condition="real">1.0000e+04</parameter>
<parameter name="samplesperthread" condition="real">1.0000e+04</parameter>
<parameter name="steps" condition="int">50</parameter>
<parameter name="stepsbetweensamples" condition="int">1</parameter>
<parameter name="store_configs" condition="int">0</parameter>
<parameter name="storeconfigs" condition="int">0</parameter>
<parameter name="sub_steps" condition="int">1</parameter>
<parameter name="substeps" condition="int">1</parameter>
<parameter name="tau" condition="au">5.0000e-02</parameter>
<parameter name="time_step" condition="au">5.0000e-02</parameter>
<parameter name="timestep" condition="au">5.0000e-02</parameter>
<parameter name="use_drift" condition="string">no</parameter>
<parameter name="usedrift" condition="string">no</parameter>
<parameter name="walkers" condition="int">1</parameter>
<parameter name="warmup_steps" condition="int">1000</parameter>
<parameter name="warmupsteps" condition="int">1000</parameter>
  DumpConfig==false Nothing (configurations, state) will be saved.
  Walker Samples are dumped every 1 steps.
</vmc>
    Restarting, cummulative properties:
      energy     = -1.9882e+00
      variance   = 0.0000e+00
      r2accepted = 1.0000e-10
      r2proposed = 1.0000e-10
  Set drift_modifier UNR parameter a = 1.0000e+00
  EstimatorManagerBase::add replace LocalEnergy estimator.
 Using QMCCostFunction::QMCCostFunction
 Using Default Cost Function: Cost = <|E-E_ff|^2>
  Set drift_modifier UNR parameter a = 1.0000e+00
  EstimatorManagerBase::add replace LocalEnergy estimator.
  EstimatorManagerBase::add replace LocalEnergy estimator.
entering engine_start function
<optimization-report>
<vmc stage="main" blocks="200">
  Cannot make clones again. Use existing 1 clones
  Initial partition of walkers 0 1 
Using ParameterDeriv Adjusted Guiding Function

  Using Particle by Particle moves
  Walker moves without drift
  Total Sample Size   =10000
  Walker distribution on root = 0 1 
  Anonymous Buffer size per walker : 1704 Bytes.
MEMORY increase 0 MB VMC::resetRun
====================================================
  SimpleFixedNodeBranch::finalize after a VMC block
    QMC counter        = 7
    time step          = 0.05
    reference energy   = -1.7571
    reference variance = 2.95614e-17
====================================================
  Execution time = 2.1095e-01
</vmc>
<opt stage="setup">
  <log>
     Reading configurations from h5FileRoot H4-descent.s007
  QMCCostFunction is created with 1 threads.
  Using Nonlocal PP in Opt: no
   Number of samples loaded to each thread : 10000 
Value of Filter Bool: false before_first_block_sample: true onDescentStep: true
Before engine_checkConfigurations
Double check filter inside engine_checkConfig: false
 w_tot 9.9985e+03
  VMC Eavg = -2.0718e+00
  VMC Evar = 2.8149e-01
  Total weights = 9.998534609e+03
Energy Average: -2.071840806e+00
Energy Variance: 2.814871733e-01
Weight Total: 2.000000000e+04
VGS Total: 1.999706922e+04
Energy Standard Deviation: 5.305536479e-01
Energy Standard Error: 5.305536479e-03
Target Function Average: 1.698903003e-01
Norm of Gradient Vector: 2.489092227e+00
After engine_checkConfig
  Execution time = 8.6891e-02
  </log>
</opt>
<opt stage="main" walkers="10000">
  <log>
Value of descent_num: 7
Number of Parameters: 31
Descent Number: 7
Finalization Descent Num (should be zero if not on last section): 0
Parameter Type step sizes:  TJF_2Body_eta=1.0000e-03 TJF_1Body_eta=1.0000e-033Body_eta1.0000e-04 F_eta=1.0000e-03 CI_eta=1.0000e-03 Orb_eta=1.0000e-03
Using Steepest Descent
  Execution time = 2.9786e-01
  </log>
  <optVariables href="H4-descent.s007.opt.xml">
CSFcoeff_1 -3.944737e-01                3 1 ON  0
uu_0       5.688645e-01                 1 1 ON  1
uu_1       3.755412e-01                 1 1 ON  2
uu_2       2.177208e-01                 1 1 ON  3
uu_3       1.072727e-01                 1 1 ON  4
uu_4       9.093901e-03                 1 1 ON  5
uu_5       -4.162711e-02                1 1 ON  6
uu_6       -2.330919e-02                1 1 ON  7
uu_7       -2.929199e-03                1 1 ON  8
uu_8       3.022928e-02                 1 1 ON  9
uu_9       2.491887e-02                 1 1 ON  10
ud_0       9.099854e-01                 1 1 ON  11
ud_1       5.667805e-01                 1 1 ON  12
ud_2       3.647047e-01                 1 1 ON  13
ud_3       1.828563e-01                 1 1 ON  14
ud_4       1.049533e-01                 1 1 ON  15
ud_5       4.680004e-02                 1 1 ON  16
ud_6       3.022176e-02                 1 1 ON  17
ud_7       5.090311e-02                 1 1 ON  18
ud_8       7.719782e-02                 1 1 ON  19
ud_9       4.988797e-02                 1 1 ON  20
eH_0       3.514580e-02                 1 1 ON  21
eH_1       3.645261e-02                 1 1 ON  22
eH_2       -1.258197e-01                1 1 ON  23
eH_3       -1.144918e-01                1 1 ON  24
eH_4       -9.553499e-02                1 1 ON  25
eH_5       -1.001576e-01                1 1 ON  26
eH_6       -1.987486e-02                1 1 ON  27
eH_7       3.276201e-02                 1 1 ON  28
eH_8       7.038935e-03                 1 1 ON  29
eH_9       3.631388e-02                 1 1 ON  30
  </optVariables>
eH
Array
ud
Array
uu
Array
   Restore the number of walkers to 1, removing 0 walkers.
</opt>
</optimization-report>
  QMC Execution time = 2.9808e-01 secs
  Reusing QMCFixedSampleLinearOptimize
 Using QMCCostFunction::QMCCostFunction
 Using Default Cost Function: Cost = <|E-E_ff|^2>

=========================================================
  Start QMCFixedSampleLinearOptimize
  File Root H4-descent.s008 append = no 
=========================================================
  Skip QMCDriver::putQMCInfo 
  Resetting Properties of the walkers 1 x 14
Omega from input file: 0.0000e+00
Current collection step: -1
Target: generalized variational principle

=========================================================
  Start VMC
  File Root H4-descent.s008 append = no 
=========================================================
Using existing walkers 
  Resetting Properties of the walkers 1 x 14

<vmc function="put">
  qmc_counter=8  my_counter=0
  time step      = 5.0000e-02
  blocks         = 200
  steps          = 50
  substeps       = 1
  current        = 0
  target samples = 1.0000e+04
  walkers/mpi    = 1

  stepsbetweensamples = 1
<parameter name="blocks" condition="int">200</parameter>
<parameter name="blocks_between_recompute" condition="int">0</parameter>
<parameter name="check_properties" condition="int">100</parameter>
<parameter name="checkproperties" condition="int">100</parameter>
<parameter name="current" condition="int">0</parameter>
<parameter name="dmcwalkersperthread" condition="real">1.0000e+04</parameter>
<parameter name="fermionicweight" condition="real">1.0000e-04</parameter>
<parameter name="jastrowweight" condition="real">0.0000e+00</parameter>
<parameter name="maxcpusecs" condition="real">3.6000e+05</parameter>
<parameter name="mg_beta" condition="real">0.0000e+00</parameter>
<parameter name="mg_gamma" condition="real">0.0000e+00</parameter>
<parameter name="modifiedguiding" condition="string">ParameterDerivativeAdjusted</parameter>
<parameter name="orboptweight" condition="real">0.0000e+00</parameter>
<parameter name="record_configs" condition="int">0</parameter>
<parameter name="record_walkers" condition="int">1</parameter>
<parameter name="recordconfigs" condition="int">0</parameter>
<parameter name="recordwalkers" condition="int">1</parameter>
<parameter name="rewind" condition="int">0</parameter>
<parameter name="samples" condition="real">1.0000e+04</parameter>
<parameter name="samplesperthread" condition="real">1.0000e+04</parameter>
<parameter name="steps" condition="int">50</parameter>
<parameter name="stepsbetweensamples" condition="int">1</parameter>
<parameter name="store_configs" condition="int">0</parameter>
<parameter name="storeconfigs" condition="int">0</parameter>
<parameter name="sub_steps" condition="int">1</parameter>
<parameter name="substeps" condition="int">1</parameter>
<parameter name="tau" condition="au">5.0000e-02</parameter>
<parameter name="time_step" condition="au">5.0000e-02</parameter>
<parameter name="timestep" condition="au">5.0000e-02</parameter>
<parameter name="use_drift" condition="string">no</parameter>
<parameter name="usedrift" condition="string">no</parameter>
<parameter name="walkers" condition="int">1</parameter>
<parameter name="warmup_steps" condition="int">1000</parameter>
<parameter name="warmupsteps" condition="int">1000</parameter>
  DumpConfig==false Nothing (configurations, state) will be saved.
  Walker Samples are dumped every 1 steps.
</vmc>
    Restarting, cummulative properties:
      energy     = -1.9594e+00
      variance   = 0.0000e+00
      r2accepted = 1.0000e-10
      r2proposed = 1.0000e-10
  Set drift_modifier UNR parameter a = 1.0000e+00
  EstimatorManagerBase::add replace LocalEnergy estimator.
 Using QMCCostFunction::QMCCostFunction
 Using Default Cost Function: Cost = <|E-E_ff|^2>
  Set drift_modifier UNR parameter a = 1.0000e+00
  EstimatorManagerBase::add replace LocalEnergy estimator.
  EstimatorManagerBase::add replace LocalEnergy estimator.
entering engine_start function
<optimization-report>
<vmc stage="main" blocks="200">
  Cannot make clones again. Use existing 1 clones
  Initial partition of walkers 0 1 
Using ParameterDeriv Adjusted Guiding Function

  Using Particle by Particle moves
  Walker moves without drift
  Total Sample Size   =10000
  Walker distribution on root = 0 1 
  Anonymous Buffer size per walker : 1704 Bytes.
MEMORY increase 0 MB VMC::resetRun
====================================================
  SimpleFixedNodeBranch::finalize after a VMC block
    QMC counter        = 8
    time step          = 0.05
    reference energy   = -1.75616
    reference variance = -2.10771e-16
====================================================
  Execution time = 2.1101e-01
</vmc>
<opt stage="setup">
  <log>
     Reading configurations from h5FileRoot H4-descent.s008
  QMCCostFunction is created with 1 threads.
  Using Nonlocal PP in Opt: no
   Number of samples loaded to each thread : 10000 
Value of Filter Bool: false before_first_block_sample: true onDescentStep: true
Before engine_checkConfigurations
Double check filter inside engine_checkConfig: false
 w_tot 9.9978e+03
  VMC Eavg = -2.0549e+00
  VMC Evar = 3.0222e-01
  Total weights = 9.997769484e+03
Energy Average: -2.054889284e+00
Energy Variance: 3.007725651e-01
Weight Total: 2.000000000e+04
VGS Total: 1.999553897e+04
Energy Standard Deviation: 5.484273563e-01
Energy Standard Error: 5.484273563e-03
Target Function Average: 2.393628222e-01
Norm of Gradient Vector: 3.249289344e+00
After engine_checkConfig
  Execution time = 8.7140e-02
  </log>
</opt>
<opt stage="main" walkers="10000">
  <log>
Value of descent_num: 8
Number of Parameters: 31
Descent Number: 8
Finalization Descent Num (should be zero if not on last section): 0
Parameter Type step sizes:  TJF_2Body_eta=1.0000e-03 TJF_1Body_eta=1.0000e-033Body_eta1.0000e-04 F_eta=1.0000e-03 CI_eta=1.0000e-03 Orb_eta=1.0000e-03
Using Steepest Descent
  Execution time = 2.9818e-01
  </log>
  <optVariables href="H4-descent.s008.opt.xml">
CSFcoeff_1 -3.839907e-01                3 1 ON  0
uu_0       5.688883e-01                 1 1 ON  1
uu_1       3.755704e-01                 1 1 ON  2
uu_2       2.193948e-01                 1 1 ON  3
uu_3       1.085842e-01                 1 1 ON  4
uu_4       1.278363e-02                 1 1 ON  5
uu_5       -3.906000e-02                1 1 ON  6
uu_6       -2.623242e-02                1 1 ON  7
uu_7       -7.314940e-03                1 1 ON  8
uu_8       2.751067e-02                 1 1 ON  9
uu_9       2.405154e-02                 1 1 ON  10
ud_0       9.103512e-01                 1 1 ON  11
ud_1       5.703223e-01                 1 1 ON  12
ud_2       3.763176e-01                 1 1 ON  13
ud_3       1.893926e-01                 1 1 ON  14
ud_4       8.937327e-02                 1 1 ON  15
ud_5       3.638596e-02                 1 1 ON  16
ud_6       3.512586e-02                 1 1 ON  17
ud_7       5.610884e-02                 1 1 ON  18
ud_8       7.499094e-02                 1 1 ON  19
ud_9       4.757436e-02                 1 1 ON  20
eH_0       2.667994e-02                 1 1 ON  21
eH_1       3.940786e-02                 1 1 ON  22
eH_2       -1.091900e-01                1 1 ON  23
eH_3       -9.902582e-02                1 1 ON  24
eH_4       -1.098422e-01                1 1 ON  25
eH_5       -8.059746e-02                1 1 ON  26
eH_6       -3.769601e-02                1 1 ON  27
eH_7       2.285341e-02                 1 1 ON  28
eH_8       8.338434e-03                 1 1 ON  29
eH_9       3.191457e-02                 1 1 ON  30
  </optVariables>
eH
Array
ud
Array
uu
Array
   Restore the number of walkers to 1, removing 0 walkers.
</opt>
</optimization-report>
  QMC Execution time = 2.9857e-01 secs
  Reusing QMCFixedSampleLinearOptimize
 Using QMCCostFunction::QMCCostFunction
 Using Default Cost Function: Cost = <|E-E_ff|^2>

=========================================================
  Start QMCFixedSampleLinearOptimize
  File Root H4-descent.s009 append = no 
=========================================================
  Skip QMCDriver::putQMCInfo 
  Resetting Properties of the walkers 1 x 14
Omega from input file: 0.0000e+00
Current collection step: -1
Target: generalized variational principle

=========================================================
  Start VMC
  File Root H4-descent.s009 append = no 
=========================================================
Using existing walkers 
  Resetting Properties of the walkers 1 x 14

<vmc function="put">
  qmc_counter=9  my_counter=0
  time step      = 5.0000e-02
  blocks         = 200
  steps          = 50
  substeps       = 1
  current        = 0
  target samples = 1.0000e+04
  walkers/mpi    = 1

  stepsbetweensamples = 1
<parameter name="blocks" condition="int">200</parameter>
<parameter name="blocks_between_recompute" condition="int">0</parameter>
<parameter name="check_properties" condition="int">100</parameter>
<parameter name="checkproperties" condition="int">100</parameter>
<parameter name="current" condition="int">0</parameter>
<parameter name="dmcwalkersperthread" condition="real">1.0000e+04</parameter>
<parameter name="fermionicweight" condition="real">1.0000e-04</parameter>
<parameter name="jastrowweight" condition="real">0.0000e+00</parameter>
<parameter name="maxcpusecs" condition="real">3.6000e+05</parameter>
<parameter name="mg_beta" condition="real">0.0000e+00</parameter>
<parameter name="mg_gamma" condition="real">0.0000e+00</parameter>
<parameter name="modifiedguiding" condition="string">ParameterDerivativeAdjusted</parameter>
<parameter name="orboptweight" condition="real">0.0000e+00</parameter>
<parameter name="record_configs" condition="int">0</parameter>
<parameter name="record_walkers" condition="int">1</parameter>
<parameter name="recordconfigs" condition="int">0</parameter>
<parameter name="recordwalkers" condition="int">1</parameter>
<parameter name="rewind" condition="int">0</parameter>
<parameter name="samples" condition="real">1.0000e+04</parameter>
<parameter name="samplesperthread" condition="real">1.0000e+04</parameter>
<parameter name="steps" condition="int">50</parameter>
<parameter name="stepsbetweensamples" condition="int">1</parameter>
<parameter name="store_configs" condition="int">0</parameter>
<parameter name="storeconfigs" condition="int">0</parameter>
<parameter name="sub_steps" condition="int">1</parameter>
<parameter name="substeps" condition="int">1</parameter>
<parameter name="tau" condition="au">5.0000e-02</parameter>
<parameter name="time_step" condition="au">5.0000e-02</parameter>
<parameter name="timestep" condition="au">5.0000e-02</parameter>
<parameter name="use_drift" condition="string">no</parameter>
<parameter name="usedrift" condition="string">no</parameter>
<parameter name="walkers" condition="int">1</parameter>
<parameter name="warmup_steps" condition="int">1000</parameter>
[...]
<parameter name="warmup_steps" condition="int">1000</parameter>
<parameter name="warmupsteps" condition="int">1000</parameter>
  DumpConfig==false Nothing (configurations, state) will be saved.
  Walker Samples are dumped every 1 steps.
</vmc>
    Restarting, cummulative properties:
      energy     = -2.0376e+00
      variance   = 0.0000e+00
      r2accepted = 1.0000e-10
      r2proposed = 1.0000e-10
  Set drift_modifier UNR parameter a = 1.0000e+00
  EstimatorManagerBase::add replace LocalEnergy estimator.
 Using QMCCostFunction::QMCCostFunction
 Using Default Cost Function: Cost = <|E-E_ff|^2>
  Set drift_modifier UNR parameter a = 1.0000e+00
  EstimatorManagerBase::add replace LocalEnergy estimator.
  EstimatorManagerBase::add replace LocalEnergy estimator.
entering engine_start function
<optimization-report>
<vmc stage="main" blocks="200">
  Cannot make clones again. Use existing 1 clones
  Initial partition of walkers 0 1 
Using ParameterDeriv Adjusted Guiding Function

  Using Particle by Particle moves
  Walker moves without drift
  Total Sample Size   =10000
  Walker distribution on root = 0 1 
  Anonymous Buffer size per walker : 1704 Bytes.
MEMORY increase 0 MB VMC::resetRun
====================================================
  SimpleFixedNodeBranch::finalize after a VMC block
    QMC counter        = 97
    time step          = 0.05
    reference energy   = -2.37666
    reference variance = -7.49537e-16
====================================================
  Execution time = 2.1433e-01
</vmc>
<opt stage="setup">
  <log>
     Reading configurations from h5FileRoot H4-descent.s097
  QMCCostFunction is created with 1 threads.
  Using Nonlocal PP in Opt: no
   Number of samples loaded to each thread : 10000 
Value of Filter Bool: false before_first_block_sample: true onDescentStep: true
Before engine_checkConfigurations
Double check filter inside engine_checkConfig: false
 w_tot 9.9975e+03
  VMC Eavg = -2.1370e+00
  VMC Evar = 2.1813e-01
  Total weights = 9.997462380e+03
Energy Average: -2.137004683e+00
Energy Variance: 2.181510451e-01
Weight Total: 2.000000000e+04
VGS Total: 1.999492476e+04
Energy Standard Deviation: 4.670664247e-01
Energy Standard Error: 4.670664247e-03
Target Function Average: 8.326808015e-02
Norm of Gradient Vector: 1.296841936e+00
After engine_checkConfig
  Execution time = 8.7144e-02
  </log>
</opt>
<opt stage="main" walkers="10000">
  <log>
Value of descent_num: 97
Number of Parameters: 31
Descent Number: 97
Finalization Descent Num (should be zero if not on last section): 0
Parameter Type step sizes:  TJF_2Body_eta=1.0000e-03 TJF_1Body_eta=1.0000e-033Body_eta1.0000e-04 F_eta=1.0000e-03 CI_eta=1.0000e-03 Orb_eta=1.0000e-03
Using Steepest Descent
  Execution time = 3.0150e-01
  </log>
  <optVariables href="H4-descent.s097.opt.xml">
CSFcoeff_1 -1.168683e-01                3 1 ON  0
uu_0       5.668622e-01                 1 1 ON  1
uu_1       3.857288e-01                 1 1 ON  2
uu_2       2.425583e-01                 1 1 ON  3
uu_3       9.990131e-02                 1 1 ON  4
uu_4       1.800088e-02                 1 1 ON  5
uu_5       -6.307014e-02                1 1 ON  6
uu_6       -5.061757e-02                1 1 ON  7
uu_7       -7.816488e-03                1 1 ON  8
uu_8       4.623477e-02                 1 1 ON  9
uu_9       3.170105e-02                 1 1 ON  10
ud_0       9.208520e-01                 1 1 ON  11
ud_1       5.650148e-01                 1 1 ON  12
ud_2       3.624102e-01                 1 1 ON  13
ud_3       1.938266e-01                 1 1 ON  14
ud_4       3.777393e-02                 1 1 ON  15
ud_5       4.154706e-02                 1 1 ON  16
ud_6       6.420052e-02                 1 1 ON  17
ud_7       5.916635e-02                 1 1 ON  18
ud_8       1.034354e-01                 1 1 ON  19
ud_9       4.717530e-02                 1 1 ON  20
eH_0       3.865090e-02                 1 1 ON  21
eH_1       2.633548e-02                 1 1 ON  22
eH_2       -1.324617e-01                1 1 ON  23
eH_3       -1.258229e-01                1 1 ON  24
eH_4       -1.035825e-01                1 1 ON  25
eH_5       -8.277882e-02                1 1 ON  26
eH_6       -2.119432e-02                1 1 ON  27
eH_7       -3.563758e-02                1 1 ON  28
eH_8       3.691167e-02                 1 1 ON  29
eH_9       -1.199587e-02                1 1 ON  30
  </optVariables>
eH
Array
ud
Array
uu
Array
   Restore the number of walkers to 1, removing 0 walkers.
</opt>
</optimization-report>
  QMC Execution time = 3.0173e-01 secs
  Reusing QMCFixedSampleLinearOptimize
 Using QMCCostFunction::QMCCostFunction
 Using Default Cost Function: Cost = <|E-E_ff|^2>

=========================================================
  Start QMCFixedSampleLinearOptimize
  File Root H4-descent.s098 append = no 
=========================================================
  Skip QMCDriver::putQMCInfo 
  Resetting Properties of the walkers 1 x 14
Omega from input file: 0.0000e+00
Current collection step: -1
Target: generalized variational principle

=========================================================
  Start VMC
  File Root H4-descent.s098 append = no 
=========================================================
Using existing walkers 
  Resetting Properties of the walkers 1 x 14

<vmc function="put">
  qmc_counter=98  my_counter=0
  time step      = 5.0000e-02
  blocks         = 200
  steps          = 50
  substeps       = 1
  current        = 0
  target samples = 1.0000e+04
  walkers/mpi    = 1

  stepsbetweensamples = 1
<parameter name="blocks" condition="int">200</parameter>
<parameter name="blocks_between_recompute" condition="int">0</parameter>
<parameter name="check_properties" condition="int">100</parameter>
<parameter name="checkproperties" condition="int">100</parameter>
<parameter name="current" condition="int">0</parameter>
<parameter name="dmcwalkersperthread" condition="real">1.0000e+04</parameter>
<parameter name="fermionicweight" condition="real">1.0000e-04</parameter>
<parameter name="jastrowweight" condition="real">0.0000e+00</parameter>
<parameter name="maxcpusecs" condition="real">3.6000e+05</parameter>
<parameter name="mg_beta" condition="real">0.0000e+00</parameter>
<parameter name="mg_gamma" condition="real">0.0000e+00</parameter>
<parameter name="modifiedguiding" condition="string">ParameterDerivativeAdjusted</parameter>
<parameter name="orboptweight" condition="real">0.0000e+00</parameter>
<parameter name="record_configs" condition="int">0</parameter>
<parameter name="record_walkers" condition="int">1</parameter>
<parameter name="recordconfigs" condition="int">0</parameter>
<parameter name="recordwalkers" condition="int">1</parameter>
<parameter name="rewind" condition="int">0</parameter>
<parameter name="samples" condition="real">1.0000e+04</parameter>
<parameter name="samplesperthread" condition="real">1.0000e+04</parameter>
<parameter name="steps" condition="int">50</parameter>
<parameter name="stepsbetweensamples" condition="int">1</parameter>
<parameter name="store_configs" condition="int">0</parameter>
<parameter name="storeconfigs" condition="int">0</parameter>
<parameter name="sub_steps" condition="int">1</parameter>
<parameter name="substeps" condition="int">1</parameter>
<parameter name="tau" condition="au">5.0000e-02</parameter>
<parameter name="time_step" condition="au">5.0000e-02</parameter>
<parameter name="timestep" condition="au">5.0000e-02</parameter>
<parameter name="use_drift" condition="string">no</parameter>
<parameter name="usedrift" condition="string">no</parameter>
<parameter name="walkers" condition="int">1</parameter>
<parameter name="warmup_steps" condition="int">1000</parameter>
<parameter name="warmupsteps" condition="int">1000</parameter>
  DumpConfig==false Nothing (configurations, state) will be saved.
  Walker Samples are dumped every 1 steps.
</vmc>
    Restarting, cummulative properties:
      energy     = -2.0411e+00
      variance   = 0.0000e+00
      r2accepted = 1.0000e-10
      r2proposed = 1.0000e-10
  Set drift_modifier UNR parameter a = 1.0000e+00
  EstimatorManagerBase::add replace LocalEnergy estimator.
 Using QMCCostFunction::QMCCostFunction
 Using Default Cost Function: Cost = <|E-E_ff|^2>
  Set drift_modifier UNR parameter a = 1.0000e+00
  EstimatorManagerBase::add replace LocalEnergy estimator.
  EstimatorManagerBase::add replace LocalEnergy estimator.
entering engine_start function
<optimization-report>
<vmc stage="main" blocks="200">
  Cannot make clones again. Use existing 1 clones
  Initial partition of walkers 0 1 
Using ParameterDeriv Adjusted Guiding Function

  Using Particle by Particle moves
  Walker moves without drift
  Total Sample Size   =10000
  Walker distribution on root = 0 1 
  Anonymous Buffer size per walker : 1704 Bytes.
MEMORY increase 0 MB VMC::resetRun
====================================================
  SimpleFixedNodeBranch::finalize after a VMC block
    QMC counter        = 98
    time step          = 0.05
    reference energy   = -2.0654
    reference variance = 7.49857e-17
====================================================
  Execution time = 2.1184e-01
</vmc>
<opt stage="setup">
  <log>
     Reading configurations from h5FileRoot H4-descent.s098
  QMCCostFunction is created with 1 threads.
  Using Nonlocal PP in Opt: no
   Number of samples loaded to each thread : 10000 
Value of Filter Bool: false before_first_block_sample: true onDescentStep: true
Before engine_checkConfigurations
Double check filter inside engine_checkConfig: false
 w_tot 9.9982e+03
  VMC Eavg = -2.1503e+00
  VMC Evar = 2.5135e-01
  Total weights = 9.998170433e+03
Energy Average: -2.150305391e+00
Energy Variance: 2.513655797e-01
Weight Total: 2.000000000e+04
VGS Total: 1.999634087e+04
Energy Standard Deviation: 5.013637200e-01
Energy Standard Error: 5.013637200e-03
Target Function Average: 1.909813661e-01
Norm of Gradient Vector: 3.113140370e+00
After engine_checkConfig
  Execution time = 8.8009e-02
  </log>
</opt>
<opt stage="main" walkers="10000">
  <log>
Value of descent_num: 98
Number of Parameters: 31
Descent Number: 98
Finalization Descent Num (should be zero if not on last section): 0
Parameter Type step sizes:  TJF_2Body_eta=1.0000e-03 TJF_1Body_eta=1.0000e-033Body_eta1.0000e-04 F_eta=1.0000e-03 CI_eta=1.0000e-03 Orb_eta=1.0000e-03
Using Steepest Descent
  Execution time = 2.9987e-01
  </log>
  <optVariables href="H4-descent.s098.opt.xml">
CSFcoeff_1 -1.096593e-01                3 1 ON  0
uu_0       5.668363e-01                 1 1 ON  1
uu_1       3.848407e-01                 1 1 ON  2
uu_2       2.445744e-01                 1 1 ON  3
uu_3       1.006272e-01                 1 1 ON  4
uu_4       1.681363e-02                 1 1 ON  5
uu_5       -6.521461e-02                1 1 ON  6
uu_6       -4.823609e-02                1 1 ON  7
uu_7       -5.809312e-03                1 1 ON  8
uu_8       4.582164e-02                 1 1 ON  9
uu_9       2.853472e-02                 1 1 ON  10
ud_0       9.204031e-01                 1 1 ON  11
ud_1       5.622031e-01                 1 1 ON  12
ud_2       3.605739e-01                 1 1 ON  13
ud_3       2.036306e-01                 1 1 ON  14
ud_4       3.689580e-02                 1 1 ON  15
ud_5       4.338949e-02                 1 1 ON  16
ud_6       6.482867e-02                 1 1 ON  17
ud_7       5.449728e-02                 1 1 ON  18
ud_8       1.026758e-01                 1 1 ON  19
ud_9       4.421436e-02                 1 1 ON  20
eH_0       4.219805e-02                 1 1 ON  21
eH_1       1.507504e-02                 1 1 ON  22
eH_2       -1.343095e-01                1 1 ON  23
eH_3       -1.061185e-01                1 1 ON  24
eH_4       -1.173961e-01                1 1 ON  25
eH_5       -9.339281e-02                1 1 ON  26
eH_6       4.646115e-03                 1 1 ON  27
eH_7       -3.692738e-02                1 1 ON  28
eH_8       2.548203e-02                 1 1 ON  29
eH_9       -5.017683e-03                1 1 ON  30
  </optVariables>
eH
Array
ud
Array
uu
Array
   Restore the number of walkers to 1, removing 0 walkers.
</opt>
</optimization-report>
  QMC Execution time = 3.0008e-01 secs
  Reusing QMCFixedSampleLinearOptimize
 Using QMCCostFunction::QMCCostFunction
 Using Default Cost Function: Cost = <|E-E_ff|^2>

=========================================================
  Start QMCFixedSampleLinearOptimize
  File Root H4-descent.s099 append = no 
=========================================================
  Skip QMCDriver::putQMCInfo 
  Resetting Properties of the walkers 1 x 14
Omega from input file: 0.0000e+00
Current collection step: -1
Target: generalized variational principle

=========================================================
  Start VMC
  File Root H4-descent.s099 append = no 
=========================================================
Using existing walkers 
  Resetting Properties of the walkers 1 x 14

<vmc function="put">
  qmc_counter=99  my_counter=0
  time step      = 5.0000e-02
  blocks         = 200
  steps          = 50
  substeps       = 1
  current        = 0
  target samples = 1.0000e+04
  walkers/mpi    = 1

  stepsbetweensamples = 1
<parameter name="blocks" condition="int">200</parameter>
<parameter name="blocks_between_recompute" condition="int">0</parameter>
<parameter name="check_properties" condition="int">100</parameter>
<parameter name="checkproperties" condition="int">100</parameter>
<parameter name="current" condition="int">0</parameter>
<parameter name="dmcwalkersperthread" condition="real">1.0000e+04</parameter>
<parameter name="fermionicweight" condition="real">1.0000e-04</parameter>
<parameter name="jastrowweight" condition="real">0.0000e+00</parameter>
<parameter name="maxcpusecs" condition="real">3.6000e+05</parameter>
<parameter name="mg_beta" condition="real">0.0000e+00</parameter>
<parameter name="mg_gamma" condition="real">0.0000e+00</parameter>
<parameter name="modifiedguiding" condition="string">ParameterDerivativeAdjusted</parameter>
<parameter name="orboptweight" condition="real">0.0000e+00</parameter>
<parameter name="record_configs" condition="int">0</parameter>
<parameter name="record_walkers" condition="int">1</parameter>
<parameter name="recordconfigs" condition="int">0</parameter>
<parameter name="recordwalkers" condition="int">1</parameter>
<parameter name="rewind" condition="int">0</parameter>
<parameter name="samples" condition="real">1.0000e+04</parameter>
<parameter name="samplesperthread" condition="real">1.0000e+04</parameter>
<parameter name="steps" condition="int">50</parameter>
<parameter name="stepsbetweensamples" condition="int">1</parameter>
<parameter name="store_configs" condition="int">0</parameter>
<parameter name="storeconfigs" condition="int">0</parameter>
<parameter name="sub_steps" condition="int">1</parameter>
<parameter name="substeps" condition="int">1</parameter>
<parameter name="tau" condition="au">5.0000e-02</parameter>
<parameter name="time_step" condition="au">5.0000e-02</parameter>
<parameter name="timestep" condition="au">5.0000e-02</parameter>
<parameter name="use_drift" condition="string">no</parameter>
<parameter name="usedrift" condition="string">no</parameter>
<parameter name="walkers" condition="int">1</parameter>
<parameter name="warmup_steps" condition="int">1000</parameter>
<parameter name="warmupsteps" condition="int">1000</parameter>
  DumpConfig==false Nothing (configurations, state) will be saved.
  Walker Samples are dumped every 1 steps.
</vmc>
    Restarting, cummulative properties:
      energy     = -2.0413e+00
      variance   = 0.0000e+00
      r2accepted = 1.0000e-10
      r2proposed = 1.0000e-10
  Set drift_modifier UNR parameter a = 1.0000e+00
  EstimatorManagerBase::add replace LocalEnergy estimator.
 Using QMCCostFunction::QMCCostFunction
 Using Default Cost Function: Cost = <|E-E_ff|^2>
  Set drift_modifier UNR parameter a = 1.0000e+00
  EstimatorManagerBase::add replace LocalEnergy estimator.
  EstimatorManagerBase::add replace LocalEnergy estimator.
entering engine_start function
<optimization-report>
<vmc stage="main" blocks="200">
  Cannot make clones again. Use existing 1 clones
  Initial partition of walkers 0 1 
Using ParameterDeriv Adjusted Guiding Function

  Using Particle by Particle moves
  Walker moves without drift
  Total Sample Size   =10000
  Walker distribution on root = 0 1 
  Anonymous Buffer size per walker : 1704 Bytes.
MEMORY increase 0 MB VMC::resetRun
====================================================
  SimpleFixedNodeBranch::finalize after a VMC block
    QMC counter        = 99
    time step          = 0.05
    reference energy   = -1.63931
    reference variance = 4.16039e-16
====================================================
  Execution time = 2.1028e-01
</vmc>
<opt stage="setup">
  <log>
     Reading configurations from h5FileRoot H4-descent.s099
  QMCCostFunction is created with 1 threads.
  Using Nonlocal PP in Opt: no
   Number of samples loaded to each thread : 10000 
Value of Filter Bool: false before_first_block_sample: true onDescentStep: true
Before engine_checkConfigurations
Double check filter inside engine_checkConfig: false
 w_tot 9.9983e+03
  VMC Eavg = -2.1706e+00
  VMC Evar = 3.0480e-01
  Total weights = 9.998286238e+03
Energy Average: -2.170614108e+00
Energy Variance: 3.048002054e-01
Weight Total: 2.000000000e+04
VGS Total: 1.999657248e+04
Energy Standard Deviation: 5.520871357e-01
Energy Standard Error: 5.520871357e-03
Target Function Average: 2.158416429e-01
Norm of Gradient Vector: 3.063958886e+00
After engine_checkConfig
  Execution time = 8.7994e-02
  </log>
</opt>
<opt stage="main" walkers="10000">
  <log>
Value of descent_num: 99
Number of Parameters: 31
Descent Number: 99
Finalization Descent Num (should be zero if not on last section): 0
Parameter Type step sizes:  TJF_2Body_eta=1.0000e-03 TJF_1Body_eta=1.0000e-033Body_eta1.0000e-04 F_eta=1.0000e-03 CI_eta=1.0000e-03 Orb_eta=1.0000e-03
Using Steepest Descent
  Execution time = 2.9830e-01
  </log>
  <optVariables href="H4-descent.s099.opt.xml">
CSFcoeff_1 -1.069992e-01                3 1 ON  0
uu_0       5.670138e-01                 1 1 ON  1
uu_1       3.867940e-01                 1 1 ON  2
uu_2       2.433326e-01                 1 1 ON  3
uu_3       9.618266e-02                 1 1 ON  4
uu_4       1.725178e-02                 1 1 ON  5
uu_5       -5.809629e-02                1 1 ON  6
uu_6       -4.818917e-02                1 1 ON  7
uu_7       -9.641697e-03                1 1 ON  8
uu_8       4.422718e-02                 1 1 ON  9
uu_9       2.834679e-02                 1 1 ON  10
ud_0       9.233657e-01                 1 1 ON  11
ud_1       5.559507e-01                 1 1 ON  12
ud_2       3.519664e-01                 1 1 ON  13
ud_3       2.039750e-01                 1 1 ON  14
ud_4       5.026521e-02                 1 1 ON  15
ud_5       4.555810e-02                 1 1 ON  16
ud_6       5.815842e-02                 1 1 ON  17
ud_7       6.097094e-02                 1 1 ON  18
ud_8       1.028304e-01                 1 1 ON  19
ud_9       3.925668e-02                 1 1 ON  20
eH_0       4.595390e-02                 1 1 ON  21
eH_1       -1.232207e-03                1 1 ON  22
eH_2       -1.291737e-01                1 1 ON  23
eH_3       -9.918407e-02                1 1 ON  24
eH_4       -1.276597e-01                1 1 ON  25
eH_5       -1.021102e-01                1 1 ON  26
eH_6       3.700247e-02                 1 1 ON  27
eH_7       -4.201015e-02                1 1 ON  28
eH_8       1.975221e-02                 1 1 ON  29
eH_9       -4.677582e-03                1 1 ON  30
  </optVariables>
eH
Array
ud
Array
uu
Array
   Restore the number of walkers to 1, removing 0 walkers.
</opt>
</optimization-report>
  QMC Execution time = 2.9852e-01 secs
  Total Execution time = 3.0068e+01 secs

=========================================================
  A new xml input file : H4-descent.s099.cont.xml
