Rank =    0  Free Memory =  3563 MB
  Input file(s): optm-descent.xml 

=====================================================
                    QMCPACK 3.7.9

       (c) Copyright 2003-  QMCPACK developers

                    Please cite:
 J. Kim et al. J. Phys. Cond. Mat. 30 195901 (2018)
      https://doi.org/10.1088/1361-648X/aab9c3

  Git branch: gvp
  Last git commit: f13eaba26d553d060e4d37a84a67d74cf1e6c0d8-dirty
  Last git commit date: Wed Aug 18 14:32:28 2021 -0700
  Last git commit subject: off by one bug fixed, temporary Jastrow fix
=====================================================
  Global options 

  Total number of MPI ranks = 1
  Number of MPI groups      = 1
  MPI group ID              = 0
  Number of ranks in group  = 1
  MPI ranks per node        = 1
  OMP 1st level threads     = 1
  OMP nested threading disabled or only 1 thread on the 2nd level

  Precision used in this calculation, see definitions in the manual:
  Base precision      = double
  Full precision      = double

  Structure-of-arrays (SoA) optimization enabled

  Input XML = optm-descent.xml

  Project = H4-descent
  date    = 2021-08-18 15:35:23 PDT
  host    = connie-Thelio

 Random Number
 -------------
  Offset for the random number seeds from input file (mod 1024): 651

  Range of prime numbers to use as seeds over processors and threads = 4877-4889


 Particle Set 
 ------------
  Name: e
  All the species have the same mass 1
  Particle set size: 4

 Particle Set 
 ------------
  Name: ion0
  All the species have the same mass 1
  Particle set size: 4

 Wavefunction setup: 
 ------------------- 
  Name: psi0
  Created SPOSet builder named 'LCAOBSet' of type molecularorbital
  LCAO: SoaAtomicBasisSet<MultiQuintic,0>
  AO BasisSet for H
   Angular momentum expanded in cartesian functions x^lx y^ly z^lz according to Gamess
Using log grid with default values: ri = 1e-06 rf = 100 npts = 1001
   R(n,l,m,s) 0 0 0 0
Expanding Ylm (angular function) according to Gamess using cartesian gaussians
Adding 1 cartesian gaussian orbitals for l= 0
  Setting cutoff radius 8.62979

   Maximum Angular Momentum  = 0
   Number of Radial functors = 1
   Basis size                = 1

Creating SPOSet in SlaterDetBuilder::put(xmlNodePtr cur).
spo_name = spo-up
  Building SPOSet 'spo-up' with 'LCAOBSet' basis set.
Creating SPOSet in SlaterDetBuilder::put(xmlNodePtr cur).
spo_name = spo-dn
  Building SPOSet 'spo-dn' with 'LCAOBSet' basis set.
Using Bryan's algorithm for MultiSlaterDeterminant expansion. 
Creating base determinant (up) for MSD expansion. 
Creating base determinant (down) for MSD expansion. 
Found determinant list. 
Reading CSFs.
Found 2 terms in the MSD expansion.
Norm of ci vector (sum of ci^2): 0.638005
Norm of qchem ci vector (sum of qchem_ci^2): 0.990143
Found 2 unique up determinants.
Found 2 unique down determinants.
Number of terms in pairs array: 1
Number of terms in pairs array: 1
CI coefficients are optimizable. 
  FermionWF = MultiSlaterDeterminantFast

   Jastrow
   -------
    Name: J2   Type: Two-Body   Function: Bspline

    Radial function for species: u - u
     Number of parameters: 10
     Cusp: -0.25
     Cutoff radius: 10

     Name                        Value Type Recompute Use Index
     ---- ---------------------------- ---- --------- --- -----
     uu_0                 5.680176e-01    1         1  ON     0
     uu_1                 3.699138e-01    1         1  ON     1
     uu_2                 2.108829e-01    1         1  ON     2
     uu_3                 9.267632e-02    1         1  ON     3
     uu_4                 5.276940e-03    1         1  ON     4
     uu_5                -3.330962e-02    1         1  ON     5
     uu_6                -2.484192e-02    1         1  ON     6
     uu_7                 8.603361e-03    1         1  ON     7
     uu_8                 3.763565e-02    1         1  ON     8
     uu_9                 2.979626e-02    1         1  ON     9

    Radial function for species: u - d
     Number of parameters: 10
     Cusp: -5.000000e-01
     Cutoff radius: 1.000000e+01

     Name                        Value Type Recompute Use Index
     ---- ---------------------------- ---- --------- --- -----
     ud_0                 9.168016e-01    1         1  ON     0
     ud_1                 5.756625e-01    1         1  ON     1
     ud_2                 3.465443e-01    1         1  ON     2
     ud_3                 1.896617e-01    1         1  ON     3
     ud_4                 8.747532e-02    1         1  ON     4
     ud_5                 3.482162e-02    1         1  ON     5
     ud_6                 3.708930e-02    1         1  ON     6
     ud_7                 6.355172e-02    1         1  ON     7
     ud_8                 7.720516e-02    1         1  ON     8
     ud_9                 5.828843e-02    1         1  ON     9


   Jastrow
   -------
    Name: J1   Type: One-Body   Function: Bspline

    Radial function for element: H
     Number of parameters: 10
     Cusp: 1.000000e+00
     Cutoff radius: 5.000000e+00

     Name                        Value Type Recompute Use Index
     ---- ---------------------------- ---- --------- --- -----
     eH_0                 1.539994e-02    1         1  ON     0
     eH_1                 2.935596e-02    1         1  ON     1
     eH_2                -1.133046e-01    1         1  ON     2
     eH_3                -9.452275e-02    1         1  ON     3
     eH_4                -1.063167e-01    1         1  ON     4
     eH_5                -7.820047e-02    1         1  ON     5
     eH_6                -3.640043e-02    1         1  ON     6
     eH_7                -6.827574e-03    1         1  ON     7
     eH_8                 8.345458e-03    1         1  ON     8
     eH_9                 4.849582e-03    1         1  ON     9

  QMCHamiltonian::addOperator Kinetic to H, physical Hamiltonian 
  QMCHamiltonian::addOperator ElecElec to H, physical Hamiltonian 
QMCHamiltonian::addOperatorType added type coulomb named ElecElec
  QMCHamiltonian::addOperator IonElec to H, physical Hamiltonian 
QMCHamiltonian::addOperatorType added type coulomb named IonElec
  QMCHamiltonian::addOperator IonIon to H, physical Hamiltonian 
QMCHamiltonian::addOperatorType added type coulomb named IonIon

  QMCHamiltonian::add2WalkerProperty added
    4 to P::PropertyList 
    0 to P::Collectables 
    starting Index of the observables in P::PropertyList = 10
ParticleSetPool::randomize 
  Initialization Execution time = 3.2597e-03 secs
=========================================================
 Summary of QMC systems 
=========================================================
ParticleSetPool has: 

  ParticleSet 'e' contains 4 particles :  u(2) d(2)

    u  1.0958951042e+00  5.1427708436e-01 -1.4428370103e+00
    u  6.0611124208e-01 -1.7216487456e-01 -7.7962973208e-01
    d -6.4575975825e-01  9.9108864642e-01  1.8564835946e-01
    d -7.5318592612e-02  2.7134132518e-01 -1.1765509155e+00

  Distance table for dissimilar particles (A-B):
    source: ion0  target: e
    Using structure-of-arrays (SoA) data layout
    Distance computations use open boundary conditions in 3D.

  Distance table for similar particles (A-A):
    source/target: e
    Using structure-of-arrays (SoA) data layout
    Distance computations use open boundary conditions in 3D.


  ParticleSet 'ion0' contains 4 particles :  H(4)

    H  0.0000000000e+00  0.0000000000e+00  0.0000000000e+00
    H  1.8897259877e+00  0.0000000000e+00  0.0000000000e+00
    H  0.0000000000e+00  0.0000000000e+00  2.8345889816e+00
    H  0.0000000000e+00  0.0000000000e+00  5.6691779632e+00

  Distance table for similar particles (A-A):
    source/target: ion0
    Using structure-of-arrays (SoA) data layout
    Distance computations use open boundary conditions in 3D.


  Hamiltonian h0
  Kinetic         Kinetic energy
  ElecElec        CoulombAB source=e

  IonElec         CoulombAA source/target ion0

  IonIon          CoulombAA source/target ion0


Loop execution max-interations = 100
Inside LM engine constructor, num_params is: 0 and _total_num_params is: 0

=========================================================
  Start QMCFixedSampleLinearOptimize
  File Root H4-descent.s000 append = no 
=========================================================
  Skip QMCDriver::putQMCInfo 
  Resetting Properties of the walkers 1 x 14
Omega from input file: 0.0000000000e+00
Current collection step: -1
Target: generalized variational principle
Omega from input file: 0.0000000000e+00
Current collection step: -1
Target: generalized variational principle
  Adding 1 walkers to 0 existing sets
  Total number of walkers: 1.0000000000e+00
  Total weight: 1.0000000000e+00

=========================================================
  Start VMC
  File Root H4-descent.s000 append = no 
=========================================================
Resetting walkers
  Using the current 1 walkers.
  Total number of walkers: 1.0000000000e+00
  Total weight: 1.0000000000e+00
  Resetting Properties of the walkers 1 x 14

<vmc function="put">
  qmc_counter=0  my_counter=0
  time step      = 5.0000000000e-02
  blocks         = 200
  steps          = 50
  substeps       = 1
  current        = 0
  target samples = 1.0000000000e+04
  walkers/mpi    = 1

  stepsbetweensamples = 1
<parameter name="blocks" condition="int">200</parameter>
<parameter name="blocks_between_recompute" condition="int">0</parameter>
<parameter name="check_properties" condition="int">100</parameter>
<parameter name="checkproperties" condition="int">100</parameter>
<parameter name="current" condition="int">0</parameter>
<parameter name="dmcwalkersperthread" condition="real">1.0000000000e+04</parameter>
<parameter name="fermionicweight" condition="real">1.0000000000e-04</parameter>
<parameter name="jastrowweight" condition="real">0.0000000000e+00</parameter>
<parameter name="maxcpusecs" condition="real">3.6000000000e+05</parameter>
<parameter name="mg_beta" condition="real">0.0000000000e+00</parameter>
<parameter name="mg_gamma" condition="real">0.0000000000e+00</parameter>
<parameter name="modifiedguiding" condition="string">ParameterDerivativeAdjusted</parameter>
<parameter name="orboptweight" condition="real">0.0000000000e+00</parameter>
<parameter name="record_configs" condition="int">0</parameter>
<parameter name="record_walkers" condition="int">1</parameter>
<parameter name="recordconfigs" condition="int">0</parameter>
<parameter name="recordwalkers" condition="int">1</parameter>
<parameter name="rewind" condition="int">0</parameter>
<parameter name="samples" condition="real">1.0000000000e+04</parameter>
<parameter name="samplesperthread" condition="real">1.0000000000e+04</parameter>
<parameter name="steps" condition="int">50</parameter>
<parameter name="stepsbetweensamples" condition="int">1</parameter>
<parameter name="store_configs" condition="int">0</parameter>
<parameter name="storeconfigs" condition="int">0</parameter>
<parameter name="sub_steps" condition="int">1</parameter>
<parameter name="substeps" condition="int">1</parameter>
<parameter name="tau" condition="au">5.0000000000e-02</parameter>
<parameter name="time_step" condition="au">5.0000000000e-02</parameter>
<parameter name="timestep" condition="au">5.0000000000e-02</parameter>
<parameter name="use_drift" condition="string">no</parameter>
<parameter name="usedrift" condition="string">no</parameter>
<parameter name="walkers" condition="int">1</parameter>
<parameter name="warmup_steps" condition="int">1000</parameter>
<parameter name="warmupsteps" condition="int">1000</parameter>
  DumpConfig==false Nothing (configurations, state) will be saved.
  Walker Samples are dumped every 1 steps.
</vmc>
  Set drift_modifier UNR parameter a = 1.0000000000e+00
  EstimatorManagerBase::add replace LocalEnergy estimator.
 Using QMCCostFunction::QMCCostFunction
 Using Default Cost Function: Cost = <|E-E_ff|^2>
  Set drift_modifier UNR parameter a = 1.0000000000e+00
  EstimatorManagerBase::add replace LocalEnergy estimator.
entering engine_start function
<optimization-report>
<vmc stage="main" blocks="200">
  Initial partition of walkers 0 1 
Using ParameterDeriv Adjusted Guiding Function

  Using Particle by Particle moves
  Walker moves without drift
  Total Sample Size   =10000
  Walker distribution on root = 0 1 
  Anonymous Buffer size per walker : 1704 Bytes.
MEMORY increase 0 MB VMC::resetRun
====================================================
  SimpleFixedNodeBranch::finalize after a VMC block
    QMC counter        = 0
    time step          = 0.05
    reference energy   = -2.15273
    reference variance = 1.01631e-17
====================================================
  Execution time = 2.0668e-01
</vmc>
<opt stage="setup">
  <log>
     Reading configurations from h5FileRoot H4-descent.s000
  QMCCostFunction is created with 1 threads.
  Using Nonlocal PP in Opt: no
   Number of samples loaded to each thread : 10000 
Value of Filter Bool: false before_first_block_sample: true onDescentStep: true
Before engine_checkConfigurations
Double check filter inside engine_checkConfig: false
 w_tot 9.9961e+03
  VMC Eavg = -1.8588e+00
  VMC Evar = 3.6463e-01
  Total weights = 9.996080421e+03
Energy Average: -1.858785948e+00
Energy Variance: 3.641583654e-01
Weight Total: 2.000000000e+04
VGS Total: 1.999216084e+04
Energy Standard Deviation: 6.034553550e-01
Energy Standard Error: 6.034553550e-03
Target Function Average: 5.605844412e-01
Norm of Gradient Vector: 7.846500831e+00
After engine_checkConfig
  Execution time = 8.9713e-02
  </log>
</opt>
<opt stage="main" walkers="10000">
  <log>
Value of descent_num: 0
Should only happen on first descent step
This is num_params_: 31
Number of Parameters: 31
Descent Number: 0
Finalization Descent Num (should be zero if not on last section): 0
Parameter Type step sizes:  TJF_2Body_eta=1.0000e-03 TJF_1Body_eta=1.0000e-033Body_eta1.0000e-04 F_eta=1.0000e-03 CI_eta=1.0000e-03 Orb_eta=1.0000e-03
Using RMSprop
  Execution time = 2.9643e-01
  </log>
  <optVariables href="H4-descent.s000.opt.xml">
CSFcoeff_1 -5.202874e-01                3 1 ON  0
uu_0       5.680238e-01                 1 1 ON  1
uu_1       3.699494e-01                 1 1 ON  2
uu_2       2.108886e-01                 1 1 ON  3
uu_3       9.275553e-02                 1 1 ON  4
uu_4       5.263859e-03                 1 1 ON  5
uu_5       -3.333788e-02                1 1 ON  6
uu_6       -2.483070e-02                1 1 ON  7
uu_7       8.557968e-03                 1 1 ON  8
uu_8       3.760549e-02                 1 1 ON  9
uu_9       2.977875e-02                 1 1 ON  10
ud_0       9.168195e-01                 1 1 ON  11
ud_1       5.757445e-01                 1 1 ON  12
ud_2       3.464608e-01                 1 1 ON  13
ud_3       1.896816e-01                 1 1 ON  14
ud_4       8.766242e-02                 1 1 ON  15
ud_5       3.478825e-02                 1 1 ON  16
ud_6       3.705435e-02                 1 1 ON  17
ud_7       6.343857e-02                 1 1 ON  18
ud_8       7.717471e-02                 1 1 ON  19
ud_9       5.826514e-02                 1 1 ON  20
eH_0       1.545023e-02                 1 1 ON  21
eH_1       2.932582e-02                 1 1 ON  22
eH_2       -1.130065e-01                1 1 ON  23
eH_3       -9.460745e-02                1 1 ON  24
eH_4       -1.065109e-01                1 1 ON  25
eH_5       -7.839298e-02                1 1 ON  26
eH_6       -3.639051e-02                1 1 ON  27
eH_7       -6.352547e-03                1 1 ON  28
eH_8       8.411380e-03                 1 1 ON  29
eH_9       4.829798e-03                 1 1 ON  30
  </optVariables>
eH
Array
ud
Array
uu
Array
   Restore the number of walkers to 1, removing 0 walkers.
</opt>
</optimization-report>
  QMC Execution time = 2.9676e-01 secs
  Reusing QMCFixedSampleLinearOptimize
 Using QMCCostFunction::QMCCostFunction
 Using Default Cost Function: Cost = <|E-E_ff|^2>

=========================================================
  Start QMCFixedSampleLinearOptimize
  File Root H4-descent.s001 append = no 
=========================================================
  Skip QMCDriver::putQMCInfo 
  Resetting Properties of the walkers 1 x 14
Omega from input file: 0.0000e+00
Current collection step: -1
Target: generalized variational principle

=========================================================
  Start VMC
  File Root H4-descent.s001 append = no 
=========================================================
Using existing walkers 
  Resetting Properties of the walkers 1 x 14

<vmc function="put">
  qmc_counter=1  my_counter=0
  time step      = 5.0000e-02
  blocks         = 200
  steps          = 50
  substeps       = 1
  current        = 0
  target samples = 1.0000e+04
  walkers/mpi    = 1

  stepsbetweensamples = 1
<parameter name="blocks" condition="int">200</parameter>
<parameter name="blocks_between_recompute" condition="int">0</parameter>
<parameter name="check_properties" condition="int">100</parameter>
<parameter name="checkproperties" condition="int">100</parameter>
<parameter name="current" condition="int">0</parameter>
<parameter name="dmcwalkersperthread" condition="real">1.0000e+04</parameter>
<parameter name="fermionicweight" condition="real">1.0000e-04</parameter>
<parameter name="jastrowweight" condition="real">0.0000e+00</parameter>
<parameter name="maxcpusecs" condition="real">3.6000e+05</parameter>
<parameter name="mg_beta" condition="real">0.0000e+00</parameter>
<parameter name="mg_gamma" condition="real">0.0000e+00</parameter>
<parameter name="modifiedguiding" condition="string">ParameterDerivativeAdjusted</parameter>
<parameter name="orboptweight" condition="real">0.0000e+00</parameter>
<parameter name="record_configs" condition="int">0</parameter>
<parameter name="record_walkers" condition="int">1</parameter>
<parameter name="recordconfigs" condition="int">0</parameter>
<parameter name="recordwalkers" condition="int">1</parameter>
<parameter name="rewind" condition="int">0</parameter>
<parameter name="samples" condition="real">1.0000e+04</parameter>
<parameter name="samplesperthread" condition="real">1.0000e+04</parameter>
<parameter name="steps" condition="int">50</parameter>
<parameter name="stepsbetweensamples" condition="int">1</parameter>
<parameter name="store_configs" condition="int">0</parameter>
<parameter name="storeconfigs" condition="int">0</parameter>
<parameter name="sub_steps" condition="int">1</parameter>
<parameter name="substeps" condition="int">1</parameter>
<parameter name="tau" condition="au">5.0000e-02</parameter>
<parameter name="time_step" condition="au">5.0000e-02</parameter>
<parameter name="timestep" condition="au">5.0000e-02</parameter>
<parameter name="use_drift" condition="string">no</parameter>
<parameter name="usedrift" condition="string">no</parameter>
<parameter name="walkers" condition="int">1</parameter>
<parameter name="warmup_steps" condition="int">1000</parameter>
<parameter name="warmupsteps" condition="int">1000</parameter>
  DumpConfig==false Nothing (configurations, state) will be saved.
  Walker Samples are dumped every 1 steps.
</vmc>
    Restarting, cummulative properties:
      energy     = -2.1527e+00
      variance   = 0.0000e+00
      r2accepted = 1.0000e-10
      r2proposed = 1.0000e-10
  Set drift_modifier UNR parameter a = 1.0000e+00
  EstimatorManagerBase::add replace LocalEnergy estimator.
 Using QMCCostFunction::QMCCostFunction
 Using Default Cost Function: Cost = <|E-E_ff|^2>
  Set drift_modifier UNR parameter a = 1.0000e+00
  EstimatorManagerBase::add replace LocalEnergy estimator.
  EstimatorManagerBase::add replace LocalEnergy estimator.
entering engine_start function
<optimization-report>
<vmc stage="main" blocks="200">
  Cannot make clones again. Use existing 1 clones
  Initial partition of walkers 0 1 
Using ParameterDeriv Adjusted Guiding Function

  Using Particle by Particle moves
  Walker moves without drift
  Total Sample Size   =10000
  Walker distribution on root = 0 1 
  Anonymous Buffer size per walker : 1704 Bytes.
MEMORY increase 0 MB VMC::resetRun
====================================================
  SimpleFixedNodeBranch::finalize after a VMC block
    QMC counter        = 1
    time step          = 0.05
    reference energy   = -2.35568
    reference variance = 1.87797e-16
====================================================
  Execution time = 2.0665e-01
</vmc>
<opt stage="setup">
  <log>
     Reading configurations from h5FileRoot H4-descent.s001
  QMCCostFunction is created with 1 threads.
  Using Nonlocal PP in Opt: no
   Number of samples loaded to each thread : 10000 
Value of Filter Bool: false before_first_block_sample: true onDescentStep: true
Before engine_checkConfigurations
Double check filter inside engine_checkConfig: false
 w_tot 9.9990e+03
  VMC Eavg = -2.0832e+00
  VMC Evar = 1.5656e-01
  Total weights = 9.999015312e+03
Energy Average: -2.083158735e+00
Energy Variance: 1.565475128e-01
Weight Total: 2.000000000e+04
VGS Total: 1.999803062e+04
Energy Standard Deviation: 3.956608558e-01
Energy Standard Error: 3.956608558e-03
Target Function Average: 1.047396351e-01
Norm of Gradient Vector: 1.507520828e+00
After engine_checkConfig
  Execution time = 8.8127e-02
  </log>
</opt>
<opt stage="main" walkers="10000">
  <log>
Value of descent_num: 1
Number of Parameters: 31
Descent Number: 1
Finalization Descent Num (should be zero if not on last section): 0
Parameter Type step sizes:  TJF_2Body_eta=1.0000e-03 TJF_1Body_eta=1.0000e-033Body_eta1.0000e-04 F_eta=1.0000e-03 CI_eta=1.0000e-03 Orb_eta=1.0000e-03
Using RMSprop
  Execution time = 2.9481e-01
  </log>
  <optVariables href="H4-descent.s001.opt.xml">
CSFcoeff_1 -5.197034e-01                3 1 ON  0
uu_0       5.677287e-01                 1 1 ON  1
uu_1       3.698482e-01                 1 1 ON  2
uu_2       2.141231e-01                 1 1 ON  3
uu_3       9.220293e-02                 1 1 ON  4
uu_4       8.343551e-03                 1 1 ON  5
uu_5       -3.322407e-02                1 1 ON  6
uu_6       -2.625617e-02                1 1 ON  7
uu_7       8.274869e-03                 1 1 ON  8
uu_8       3.716145e-02                 1 1 ON  9
uu_9       2.884572e-02                 1 1 ON  10
ud_0       9.181237e-01                 1 1 ON  11
ud_1       5.748615e-01                 1 1 ON  12
ud_2       3.469375e-01                 1 1 ON  13
ud_3       1.927732e-01                 1 1 ON  14
ud_4       8.721856e-02                 1 1 ON  15
ud_5       3.439305e-02                 1 1 ON  16
ud_6       3.691937e-02                 1 1 ON  17
ud_7       6.365828e-02                 1 1 ON  18
ud_8       7.618943e-02                 1 1 ON  19
ud_9       5.898273e-02                 1 1 ON  20
eH_0       1.370825e-02                 1 1 ON  21
eH_1       2.868356e-02                 1 1 ON  22
eH_2       -1.127681e-01                1 1 ON  23
eH_3       -9.245914e-02                1 1 ON  24
eH_4       -1.065243e-01                1 1 ON  25
eH_5       -7.808571e-02                1 1 ON  26
eH_6       -3.979313e-02                1 1 ON  27
eH_7       -6.599274e-03                1 1 ON  28
eH_8       9.126481e-03                 1 1 ON  29
eH_9       6.221960e-03                 1 1 ON  30
  </optVariables>
eH
Array
ud
Array
uu
Array
   Restore the number of walkers to 1, removing 0 walkers.
</opt>
</optimization-report>
  QMC Execution time = 2.9504e-01 secs
  Reusing QMCFixedSampleLinearOptimize
 Using QMCCostFunction::QMCCostFunction
 Using Default Cost Function: Cost = <|E-E_ff|^2>

=========================================================
  Start QMCFixedSampleLinearOptimize
  File Root H4-descent.s002 append = no 
=========================================================
  Skip QMCDriver::putQMCInfo 
  Resetting Properties of the walkers 1 x 14
Omega from input file: 0.0000e+00
Current collection step: -1
Target: generalized variational principle

=========================================================
  Start VMC
  File Root H4-descent.s002 append = no 
=========================================================
Using existing walkers 
  Resetting Properties of the walkers 1 x 14

<vmc function="put">
  qmc_counter=2  my_counter=0
  time step      = 5.0000e-02
  blocks         = 200
  steps          = 50
  substeps       = 1
  current        = 0
  target samples = 1.0000e+04
  walkers/mpi    = 1

  stepsbetweensamples = 1
<parameter name="blocks" condition="int">200</parameter>
<parameter name="blocks_between_recompute" condition="int">0</parameter>
<parameter name="check_properties" condition="int">100</parameter>
<parameter name="checkproperties" condition="int">100</parameter>
<parameter name="current" condition="int">0</parameter>
<parameter name="dmcwalkersperthread" condition="real">1.0000e+04</parameter>
<parameter name="fermionicweight" condition="real">1.0000e-04</parameter>
<parameter name="jastrowweight" condition="real">0.0000e+00</parameter>
<parameter name="maxcpusecs" condition="real">3.6000e+05</parameter>
<parameter name="mg_beta" condition="real">0.0000e+00</parameter>
<parameter name="mg_gamma" condition="real">0.0000e+00</parameter>
<parameter name="modifiedguiding" condition="string">ParameterDerivativeAdjusted</parameter>
<parameter name="orboptweight" condition="real">0.0000e+00</parameter>
<parameter name="record_configs" condition="int">0</parameter>
<parameter name="record_walkers" condition="int">1</parameter>
<parameter name="recordconfigs" condition="int">0</parameter>
<parameter name="recordwalkers" condition="int">1</parameter>
<parameter name="rewind" condition="int">0</parameter>
<parameter name="samples" condition="real">1.0000e+04</parameter>
<parameter name="samplesperthread" condition="real">1.0000e+04</parameter>
<parameter name="steps" condition="int">50</parameter>
<parameter name="stepsbetweensamples" condition="int">1</parameter>
<parameter name="store_configs" condition="int">0</parameter>
<parameter name="storeconfigs" condition="int">0</parameter>
<parameter name="sub_steps" condition="int">1</parameter>
<parameter name="substeps" condition="int">1</parameter>
<parameter name="tau" condition="au">5.0000e-02</parameter>
<parameter name="time_step" condition="au">5.0000e-02</parameter>
<parameter name="timestep" condition="au">5.0000e-02</parameter>
<parameter name="use_drift" condition="string">no</parameter>
<parameter name="usedrift" condition="string">no</parameter>
<parameter name="walkers" condition="int">1</parameter>
<parameter name="warmup_steps" condition="int">1000</parameter>
<parameter name="warmupsteps" condition="int">1000</parameter>
  DumpConfig==false Nothing (configurations, state) will be saved.
  Walker Samples are dumped every 1 steps.
</vmc>
    Restarting, cummulative properties:
      energy     = -2.2542e+00
      variance   = 0.0000e+00
      r2accepted = 1.0000e-10
      r2proposed = 1.0000e-10
  Set drift_modifier UNR parameter a = 1.0000e+00
  EstimatorManagerBase::add replace LocalEnergy estimator.
 Using QMCCostFunction::QMCCostFunction
 Using Default Cost Function: Cost = <|E-E_ff|^2>
  Set drift_modifier UNR parameter a = 1.0000e+00
  EstimatorManagerBase::add replace LocalEnergy estimator.
  EstimatorManagerBase::add replace LocalEnergy estimator.
entering engine_start function
<optimization-report>
<vmc stage="main" blocks="200">
  Cannot make clones again. Use existing 1 clones
  Initial partition of walkers 0 1 
Using ParameterDeriv Adjusted Guiding Function

  Using Particle by Particle moves
  Walker moves without drift
  Total Sample Size   =10000
  Walker distribution on root = 0 1 
  Anonymous Buffer size per walker : 1704 Bytes.
MEMORY increase 0 MB VMC::resetRun
====================================================
  SimpleFixedNodeBranch::finalize after a VMC block
    QMC counter        = 2
    time step          = 0.05
    reference energy   = -2.49604
    reference variance = 1.45552e-16
====================================================
  Execution time = 2.0265e-01
</vmc>
<opt stage="setup">
  <log>
     Reading configurations from h5FileRoot H4-descent.s002
  QMCCostFunction is created with 1 threads.
  Using Nonlocal PP in Opt: no
   Number of samples loaded to each thread : 10000 
Value of Filter Bool: false before_first_block_sample: true onDescentStep: true
Before engine_checkConfigurations
Double check filter inside engine_checkConfig: false
 w_tot 9.9948e+03
  VMC Eavg = -2.0478e+00
  VMC Evar = 1.7032e-01
  Total weights = 9.994822372e+03
Energy Average: -2.047777949e+00
Energy Variance: 1.703579773e-01
Weight Total: 2.000000000e+04
VGS Total: 1.998964474e+04
Energy Standard Deviation: 4.127444455e-01
Energy Standard Error: 4.127444455e-03
Target Function Average: 9.669375975e-02
Norm of Gradient Vector: 1.783033082e+00
After engine_checkConfig
  Execution time = 8.6573e-02
  </log>
</opt>
<opt stage="main" walkers="10000">
  <log>
Value of descent_num: 2
Number of Parameters: 31
Descent Number: 2
Finalization Descent Num (should be zero if not on last section): 0
Parameter Type step sizes:  TJF_2Body_eta=1.0000e-03 TJF_1Body_eta=1.0000e-033Body_eta1.0000e-04 F_eta=1.0000e-03 CI_eta=1.0000e-03 Orb_eta=1.0000e-03
Using RMSprop
  Execution time = 2.8925e-01
  </log>
  <optVariables href="H4-descent.s002.opt.xml">
CSFcoeff_1 -5.191991e-01                3 1 ON  0
uu_0       5.672227e-01                 1 1 ON  1
uu_1       3.689909e-01                 1 1 ON  2
uu_2       2.136199e-01                 1 1 ON  3
uu_3       9.358032e-02                 1 1 ON  4
uu_4       7.231165e-03                 1 1 ON  5
uu_5       -3.365726e-02                1 1 ON  6
uu_6       -2.372822e-02                1 1 ON  7
uu_7       7.622408e-03                 1 1 ON  8
uu_8       3.657890e-02                 1 1 ON  9
uu_9       2.875871e-02                 1 1 ON  10
ud_0       9.169073e-01                 1 1 ON  11
ud_1       5.745504e-01                 1 1 ON  12
ud_2       3.473889e-01                 1 1 ON  13
ud_3       1.927114e-01                 1 1 ON  14
ud_4       8.733055e-02                 1 1 ON  15
ud_5       3.387019e-02                 1 1 ON  16
ud_6       3.848428e-02                 1 1 ON  17
ud_7       6.340342e-02                 1 1 ON  18
ud_8       7.519183e-02                 1 1 ON  19
ud_9       5.858946e-02                 1 1 ON  20
eH_0       1.489516e-02                 1 1 ON  21
eH_1       2.949222e-02                 1 1 ON  22
eH_2       -1.127751e-01                1 1 ON  23
eH_3       -9.267326e-02                1 1 ON  24
eH_4       -1.075495e-01                1 1 ON  25
eH_5       -7.790449e-02                1 1 ON  26
eH_6       -3.556375e-02                1 1 ON  27
eH_7       -6.859605e-03                1 1 ON  28
eH_8       9.775454e-03                 1 1 ON  29
eH_9       5.557859e-03                 1 1 ON  30
  </optVariables>
eH
Array
ud
Array
uu
Array
   Restore the number of walkers to 1, removing 0 walkers.
</opt>
</optimization-report>
  QMC Execution time = 2.8948e-01 secs
  Reusing QMCFixedSampleLinearOptimize
 Using QMCCostFunction::QMCCostFunction
 Using Default Cost Function: Cost = <|E-E_ff|^2>

=========================================================
  Start QMCFixedSampleLinearOptimize
  File Root H4-descent.s003 append = no 
=========================================================
  Skip QMCDriver::putQMCInfo 
  Resetting Properties of the walkers 1 x 14
Omega from input file: 0.0000e+00
Current collection step: -1
Target: generalized variational principle

=========================================================
  Start VMC
  File Root H4-descent.s003 append = no 
=========================================================
Using existing walkers 
  Resetting Properties of the walkers 1 x 14

<vmc function="put">
  qmc_counter=3  my_counter=0
  time step      = 5.0000e-02
  blocks         = 200
  steps          = 50
  substeps       = 1
  current        = 0
  target samples = 1.0000e+04
  walkers/mpi    = 1

  stepsbetweensamples = 1
<parameter name="blocks" condition="int">200</parameter>
<parameter name="blocks_between_recompute" condition="int">0</parameter>
<parameter name="check_properties" condition="int">100</parameter>
<parameter name="checkproperties" condition="int">100</parameter>
<parameter name="current" condition="int">0</parameter>
<parameter name="dmcwalkersperthread" condition="real">1.0000e+04</parameter>
<parameter name="fermionicweight" condition="real">1.0000e-04</parameter>
<parameter name="jastrowweight" condition="real">0.0000e+00</parameter>
<parameter name="maxcpusecs" condition="real">3.6000e+05</parameter>
<parameter name="mg_beta" condition="real">0.0000e+00</parameter>
<parameter name="mg_gamma" condition="real">0.0000e+00</parameter>
<parameter name="modifiedguiding" condition="string">ParameterDerivativeAdjusted</parameter>
<parameter name="orboptweight" condition="real">0.0000e+00</parameter>
<parameter name="record_configs" condition="int">0</parameter>
<parameter name="record_walkers" condition="int">1</parameter>
<parameter name="recordconfigs" condition="int">0</parameter>
<parameter name="recordwalkers" condition="int">1</parameter>
<parameter name="rewind" condition="int">0</parameter>
<parameter name="samples" condition="real">1.0000e+04</parameter>
<parameter name="samplesperthread" condition="real">1.0000e+04</parameter>
<parameter name="steps" condition="int">50</parameter>
<parameter name="stepsbetweensamples" condition="int">1</parameter>
<parameter name="store_configs" condition="int">0</parameter>
<parameter name="storeconfigs" condition="int">0</parameter>
<parameter name="sub_steps" condition="int">1</parameter>
<parameter name="substeps" condition="int">1</parameter>
<parameter name="tau" condition="au">5.0000e-02</parameter>
<parameter name="time_step" condition="au">5.0000e-02</parameter>
<parameter name="timestep" condition="au">5.0000e-02</parameter>
<parameter name="use_drift" condition="string">no</parameter>
<parameter name="usedrift" condition="string">no</parameter>
<parameter name="walkers" condition="int">1</parameter>
<parameter name="warmup_steps" condition="int">1000</parameter>
<parameter name="warmupsteps" condition="int">1000</parameter>
  DumpConfig==false Nothing (configurations, state) will be saved.
  Walker Samples are dumped every 1 steps.
</vmc>
    Restarting, cummulative properties:
      energy     = -2.3348e+00
      variance   = 0.0000e+00
      r2accepted = 1.0000e-10
      r2proposed = 1.0000e-10
  Set drift_modifier UNR parameter a = 1.0000e+00
  EstimatorManagerBase::add replace LocalEnergy estimator.
 Using QMCCostFunction::QMCCostFunction
 Using Default Cost Function: Cost = <|E-E_ff|^2>
  Set drift_modifier UNR parameter a = 1.0000e+00
  EstimatorManagerBase::add replace LocalEnergy estimator.
  EstimatorManagerBase::add replace LocalEnergy estimator.
entering engine_start function
<optimization-report>
<vmc stage="main" blocks="200">
  Cannot make clones again. Use existing 1 clones
  Initial partition of walkers 0 1 
Using ParameterDeriv Adjusted Guiding Function

  Using Particle by Particle moves
  Walker moves without drift
  Total Sample Size   =10000
  Walker distribution on root = 0 1 
  Anonymous Buffer size per walker : 1704 Bytes.
MEMORY increase 0 MB VMC::resetRun
====================================================
  SimpleFixedNodeBranch::finalize after a VMC block
    QMC counter        = 3
    time step          = 0.05
    reference energy   = -2.64394
    reference variance = -4.30543e-16
====================================================
  Execution time = 2.0354e-01
</vmc>
<opt stage="setup">
  <log>
     Reading configurations from h5FileRoot H4-descent.s003
  QMCCostFunction is created with 1 threads.
  Using Nonlocal PP in Opt: no
   Number of samples loaded to each thread : 10000 
Value of Filter Bool: false before_first_block_sample: true onDescentStep: true
Before engine_checkConfigurations
Double check filter inside engine_checkConfig: false
 w_tot 9.9964e+03
  VMC Eavg = -2.0497e+00
  VMC Evar = 1.9476e-01
  Total weights = 9.996438881e+03
Energy Average: -2.049675477e+00
Energy Variance: 1.941578122e-01
Weight Total: 2.000000000e+04
VGS Total: 1.999287776e+04
Energy Standard Deviation: 4.406334215e-01
Energy Standard Error: 4.406334215e-03
Target Function Average: 1.292810628e-01
Norm of Gradient Vector: 2.035126123e+00
After engine_checkConfig
  Execution time = 8.7040e-02
  </log>
</opt>
<opt stage="main" walkers="10000">
  <log>
Value of descent_num: 3
Number of Parameters: 31
Descent Number: 3
Finalization Descent Num (should be zero if not on last section): 0
Parameter Type step sizes:  TJF_2Body_eta=1.0000e-03 TJF_1Body_eta=1.0000e-033Body_eta1.0000e-04 F_eta=1.0000e-03 CI_eta=1.0000e-03 Orb_eta=1.0000e-03
Using RMSprop
  Execution time = 2.9061e-01
  </log>
  <optVariables href="H4-descent.s003.opt.xml">
CSFcoeff_1 -5.187910e-01                3 1 ON  0
uu_0       5.677700e-01                 1 1 ON  1
uu_1       3.688807e-01                 1 1 ON  2
uu_2       2.143900e-01                 1 1 ON  3
uu_3       9.267555e-02                 1 1 ON  4
uu_4       1.005701e-02                 1 1 ON  5
uu_5       -3.294335e-02                1 1 ON  6
uu_6       -2.757136e-02                1 1 ON  7
uu_7       9.331039e-03                 1 1 ON  8
uu_8       3.539514e-02                 1 1 ON  9
uu_9       2.838904e-02                 1 1 ON  10
ud_0       9.158784e-01                 1 1 ON  11
ud_1       5.745701e-01                 1 1 ON  12
ud_2       3.481416e-01                 1 1 ON  13
ud_3       1.926381e-01                 1 1 ON  14
ud_4       8.712805e-02                 1 1 ON  15
ud_5       3.465403e-02                 1 1 ON  16
ud_6       3.776730e-02                 1 1 ON  17
ud_7       6.325737e-02                 1 1 ON  18
ud_8       7.477339e-02                 1 1 ON  19
ud_9       6.020231e-02                 1 1 ON  20
eH_0       1.540686e-02                 1 1 ON  21
eH_1       3.247663e-02                 1 1 ON  22
eH_2       -1.133576e-01                1 1 ON  23
eH_3       -9.364538e-02                1 1 ON  24
eH_4       -1.068708e-01                1 1 ON  25
eH_5       -7.882618e-02                1 1 ON  26
eH_6       -3.523171e-02                1 1 ON  27
eH_7       -6.370561e-03                1 1 ON  28
eH_8       9.348379e-03                 1 1 ON  29
eH_9       8.744772e-03                 1 1 ON  30
  </optVariables>
eH
Array
ud
Array
uu
Array
   Restore the number of walkers to 1, removing 0 walkers.
</opt>
</optimization-report>
  QMC Execution time = 2.9085e-01 secs
  Reusing QMCFixedSampleLinearOptimize
 Using QMCCostFunction::QMCCostFunction
 Using Default Cost Function: Cost = <|E-E_ff|^2>

=========================================================
  Start QMCFixedSampleLinearOptimize
  File Root H4-descent.s004 append = no 
=========================================================
  Skip QMCDriver::putQMCInfo 
  Resetting Properties of the walkers 1 x 14
Omega from input file: 0.0000e+00
Current collection step: -1
Target: generalized variational principle

=========================================================
  Start VMC
  File Root H4-descent.s004 append = no 
=========================================================
Using existing walkers 
  Resetting Properties of the walkers 1 x 14

<vmc function="put">
  qmc_counter=4  my_counter=0
  time step      = 5.0000e-02
  blocks         = 200
  steps          = 50
  substeps       = 1
  current        = 0
  target samples = 1.0000e+04
  walkers/mpi    = 1

  stepsbetweensamples = 1
<parameter name="blocks" condition="int">200</parameter>
<parameter name="blocks_between_recompute" condition="int">0</parameter>
<parameter name="check_properties" condition="int">100</parameter>
<parameter name="checkproperties" condition="int">100</parameter>
<parameter name="current" condition="int">0</parameter>
<parameter name="dmcwalkersperthread" condition="real">1.0000e+04</parameter>
<parameter name="fermionicweight" condition="real">1.0000e-04</parameter>
<parameter name="jastrowweight" condition="real">0.0000e+00</parameter>
<parameter name="maxcpusecs" condition="real">3.6000e+05</parameter>
<parameter name="mg_beta" condition="real">0.0000e+00</parameter>
<parameter name="mg_gamma" condition="real">0.0000e+00</parameter>
<parameter name="modifiedguiding" condition="string">ParameterDerivativeAdjusted</parameter>
<parameter name="orboptweight" condition="real">0.0000e+00</parameter>
<parameter name="record_configs" condition="int">0</parameter>
<parameter name="record_walkers" condition="int">1</parameter>
<parameter name="recordconfigs" condition="int">0</parameter>
<parameter name="recordwalkers" condition="int">1</parameter>
<parameter name="rewind" condition="int">0</parameter>
<parameter name="samples" condition="real">1.0000e+04</parameter>
<parameter name="samplesperthread" condition="real">1.0000e+04</parameter>
<parameter name="steps" condition="int">50</parameter>
<parameter name="stepsbetweensamples" condition="int">1</parameter>
<parameter name="store_configs" condition="int">0</parameter>
<parameter name="storeconfigs" condition="int">0</parameter>
<parameter name="sub_steps" condition="int">1</parameter>
<parameter name="substeps" condition="int">1</parameter>
<parameter name="tau" condition="au">5.0000e-02</parameter>
<parameter name="time_step" condition="au">5.0000e-02</parameter>
<parameter name="timestep" condition="au">5.0000e-02</parameter>
<parameter name="use_drift" condition="string">no</parameter>
<parameter name="usedrift" condition="string">no</parameter>
<parameter name="walkers" condition="int">1</parameter>
<parameter name="warmup_steps" condition="int">1000</parameter>
<parameter name="warmupsteps" condition="int">1000</parameter>
  DumpConfig==false Nothing (configurations, state) will be saved.
  Walker Samples are dumped every 1 steps.
</vmc>
    Restarting, cummulative properties:
      energy     = -2.4121e+00
      variance   = 0.0000e+00
      r2accepted = 1.0000e-10
      r2proposed = 1.0000e-10
  Set drift_modifier UNR parameter a = 1.0000e+00
  EstimatorManagerBase::add replace LocalEnergy estimator.
 Using QMCCostFunction::QMCCostFunction
 Using Default Cost Function: Cost = <|E-E_ff|^2>
  Set drift_modifier UNR parameter a = 1.0000e+00
  EstimatorManagerBase::add replace LocalEnergy estimator.
  EstimatorManagerBase::add replace LocalEnergy estimator.
entering engine_start function
<optimization-report>
<vmc stage="main" blocks="200">
  Cannot make clones again. Use existing 1 clones
  Initial partition of walkers 0 1 
Using ParameterDeriv Adjusted Guiding Function

  Using Particle by Particle moves
  Walker moves without drift
  Total Sample Size   =10000
  Walker distribution on root = 0 1 
  Anonymous Buffer size per walker : 1704 Bytes.
MEMORY increase 0 MB VMC::resetRun
====================================================
  SimpleFixedNodeBranch::finalize after a VMC block
    QMC counter        = 4
    time step          = 0.05
    reference energy   = -2.49839
    reference variance = -1.21469e-16
====================================================
  Execution time = 2.0496e-01
</vmc>
<opt stage="setup">
  <log>
     Reading configurations from h5FileRoot H4-descent.s004
  QMCCostFunction is created with 1 threads.
  Using Nonlocal PP in Opt: no
   Number of samples loaded to each thread : 10000 
Value of Filter Bool: false before_first_block_sample: true onDescentStep: true
Before engine_checkConfigurations
Double check filter inside engine_checkConfig: false
 w_tot 9.9990e+03
  VMC Eavg = -2.0484e+00
  VMC Evar = 1.9042e-01
  Total weights = 9.998970544e+03
Energy Average: -2.048352276e+00
Energy Variance: 1.904180400e-01
Weight Total: 2.000000000e+04
VGS Total: 1.999794109e+04
Energy Standard Deviation: 4.363691556e-01
Energy Standard Error: 4.363691556e-03
Target Function Average: 1.204406916e-01
Norm of Gradient Vector: 1.682788918e+00
After engine_checkConfig
  Execution time = 8.7906e-02
  </log>
</opt>
<opt stage="main" walkers="10000">
  <log>
Value of descent_num: 4
Number of Parameters: 31
Descent Number: 4
Finalization Descent Num (should be zero if not on last section): 0
Parameter Type step sizes:  TJF_2Body_eta=1.0000e-03 TJF_1Body_eta=1.0000e-033Body_eta1.0000e-04 F_eta=1.0000e-03 CI_eta=1.0000e-03 Orb_eta=1.0000e-03
Using RMSprop
  Execution time = 2.9289e-01
  </log>
  <optVariables href="H4-descent.s004.opt.xml">
CSFcoeff_1 -5.182151e-01                3 1 ON  0
uu_0       5.688199e-01                 1 1 ON  1
uu_1       3.697709e-01                 1 1 ON  2
uu_2       2.148351e-01                 1 1 ON  3
uu_3       9.221587e-02                 1 1 ON  4
uu_4       9.056862e-03                 1 1 ON  5
uu_5       -3.060365e-02                1 1 ON  6
uu_6       -2.558276e-02                1 1 ON  7
uu_7       9.169302e-03                 1 1 ON  8
uu_8       3.357997e-02                 1 1 ON  9
uu_9       2.776321e-02                 1 1 ON  10
ud_0       9.165170e-01                 1 1 ON  11
ud_1       5.740979e-01                 1 1 ON  12
ud_2       3.485736e-01                 1 1 ON  13
ud_3       1.919488e-01                 1 1 ON  14
ud_4       8.754554e-02                 1 1 ON  15
ud_5       3.303516e-02                 1 1 ON  16
ud_6       3.678647e-02                 1 1 ON  17
ud_7       6.362463e-02                 1 1 ON  18
ud_8       7.573780e-02                 1 1 ON  19
ud_9       5.986884e-02                 1 1 ON  20
eH_0       1.606521e-02                 1 1 ON  21
eH_1       3.319052e-02                 1 1 ON  22
eH_2       -1.127230e-01                1 1 ON  23
eH_3       -9.501310e-02                1 1 ON  24
eH_4       -1.073800e-01                1 1 ON  25
eH_5       -7.832009e-02                1 1 ON  26
eH_6       -3.541818e-02                1 1 ON  27
eH_7       -6.317389e-03                1 1 ON  28
eH_8       8.912425e-03                 1 1 ON  29
eH_9       4.960555e-03                 1 1 ON  30
  </optVariables>
eH
Array
ud
Array
uu
Array
   Restore the number of walkers to 1, removing 0 walkers.
</opt>
</optimization-report>
  QMC Execution time = 2.9315e-01 secs
  Reusing QMCFixedSampleLinearOptimize
 Using QMCCostFunction::QMCCostFunction
 Using Default Cost Function: Cost = <|E-E_ff|^2>

=========================================================
  Start QMCFixedSampleLinearOptimize
  File Root H4-descent.s005 append = no 
=========================================================
  Skip QMCDriver::putQMCInfo 
  Resetting Properties of the walkers 1 x 14
Omega from input file: 0.0000e+00
Current collection step: -1
Target: generalized variational principle

=========================================================
  Start VMC
  File Root H4-descent.s005 append = no 
=========================================================
Using existing walkers 
  Resetting Properties of the walkers 1 x 14

<vmc function="put">
  qmc_counter=5  my_counter=0
  time step      = 5.0000e-02
  blocks         = 200
  steps          = 50
  substeps       = 1
  current        = 0
  target samples = 1.0000e+04
  walkers/mpi    = 1

  stepsbetweensamples = 1
<parameter name="blocks" condition="int">200</parameter>
<parameter name="blocks_between_recompute" condition="int">0</parameter>
<parameter name="check_properties" condition="int">100</parameter>
<parameter name="checkproperties" condition="int">100</parameter>
<parameter name="current" condition="int">0</parameter>
<parameter name="dmcwalkersperthread" condition="real">1.0000e+04</parameter>
<parameter name="fermionicweight" condition="real">1.0000e-04</parameter>
<parameter name="jastrowweight" condition="real">0.0000e+00</parameter>
<parameter name="maxcpusecs" condition="real">3.6000e+05</parameter>
<parameter name="mg_beta" condition="real">0.0000e+00</parameter>
<parameter name="mg_gamma" condition="real">0.0000e+00</parameter>
<parameter name="modifiedguiding" condition="string">ParameterDerivativeAdjusted</parameter>
<parameter name="orboptweight" condition="real">0.0000e+00</parameter>
<parameter name="record_configs" condition="int">0</parameter>
<parameter name="record_walkers" condition="int">1</parameter>
<parameter name="recordconfigs" condition="int">0</parameter>
<parameter name="recordwalkers" condition="int">1</parameter>
<parameter name="rewind" condition="int">0</parameter>
<parameter name="samples" condition="real">1.0000e+04</parameter>
<parameter name="samplesperthread" condition="real">1.0000e+04</parameter>
<parameter name="steps" condition="int">50</parameter>
<parameter name="stepsbetweensamples" condition="int">1</parameter>
<parameter name="store_configs" condition="int">0</parameter>
<parameter name="storeconfigs" condition="int">0</parameter>
<parameter name="sub_steps" condition="int">1</parameter>
<parameter name="substeps" condition="int">1</parameter>
<parameter name="tau" condition="au">5.0000e-02</parameter>
<parameter name="time_step" condition="au">5.0000e-02</parameter>
<parameter name="timestep" condition="au">5.0000e-02</parameter>
<parameter name="use_drift" condition="string">no</parameter>
<parameter name="usedrift" condition="string">no</parameter>
<parameter name="walkers" condition="int">1</parameter>
<parameter name="warmup_steps" condition="int">1000</parameter>
<parameter name="warmupsteps" condition="int">1000</parameter>
  DumpConfig==false Nothing (configurations, state) will be saved.
  Walker Samples are dumped every 1 steps.
</vmc>
    Restarting, cummulative properties:
      energy     = -2.4294e+00
      variance   = 0.0000e+00
      r2accepted = 1.0000e-10
      r2proposed = 1.0000e-10
  Set drift_modifier UNR parameter a = 1.0000e+00
  EstimatorManagerBase::add replace LocalEnergy estimator.
 Using QMCCostFunction::QMCCostFunction
 Using Default Cost Function: Cost = <|E-E_ff|^2>
  Set drift_modifier UNR parameter a = 1.0000e+00
  EstimatorManagerBase::add replace LocalEnergy estimator.
  EstimatorManagerBase::add replace LocalEnergy estimator.
entering engine_start function
<optimization-report>
<vmc stage="main" blocks="200">
  Cannot make clones again. Use existing 1 clones
  Initial partition of walkers 0 1 
Using ParameterDeriv Adjusted Guiding Function

  Using Particle by Particle moves
  Walker moves without drift
  Total Sample Size   =10000
  Walker distribution on root = 0 1 
  Anonymous Buffer size per walker : 1704 Bytes.
MEMORY increase 0 MB VMC::resetRun
====================================================
  SimpleFixedNodeBranch::finalize after a VMC block
    QMC counter        = 5
    time step          = 0.05
    reference energy   = -2.1316
    reference variance = -1.43186e-16
====================================================
  Execution time = 2.0553e-01
</vmc>
<opt stage="setup">
  <log>
     Reading configurations from h5FileRoot H4-descent.s005
  QMCCostFunction is created with 1 threads.
  Using Nonlocal PP in Opt: no
   Number of samples loaded to each thread : 10000 
Value of Filter Bool: false before_first_block_sample: true onDescentStep: true
Before engine_checkConfigurations
Double check filter inside engine_checkConfig: false
 w_tot 9.9992e+03
  VMC Eavg = -2.0831e+00
  VMC Evar = 1.5076e-01
  Total weights = 9.999159694e+03
Energy Average: -2.083128582e+00
Energy Variance: 1.507679465e-01
Weight Total: 2.000000000e+04
VGS Total: 1.999831939e+04
Energy Standard Deviation: 3.882884836e-01
Energy Standard Error: 3.882884836e-03
Target Function Average: 1.226910847e-01
Norm of Gradient Vector: 1.952694694e+00
After engine_checkConfig
  Execution time = 8.8502e-02
  </log>
</opt>
<opt stage="main" walkers="10000">
  <log>
Value of descent_num: 5
Number of Parameters: 31
Descent Number: 5
Finalization Descent Num (should be zero if not on last section): 0
Parameter Type step sizes:  TJF_2Body_eta=1.0000e-03 TJF_1Body_eta=1.0000e-033Body_eta1.0000e-04 F_eta=1.0000e-03 CI_eta=1.0000e-03 Orb_eta=1.0000e-03
Using RMSprop
  Execution time = 2.9406e-01
  </log>
  <optVariables href="H4-descent.s005.opt.xml">
CSFcoeff_1 -5.179817e-01                3 1 ON  0
uu_0       5.685765e-01                 1 1 ON  1
uu_1       3.698917e-01                 1 1 ON  2
uu_2       2.132717e-01                 1 1 ON  3
uu_3       9.314257e-02                 1 1 ON  4
uu_4       8.565847e-03                 1 1 ON  5
uu_5       -3.111983e-02                1 1 ON  6
uu_6       -2.824764e-02                1 1 ON  7
uu_7       8.336747e-03                 1 1 ON  8
uu_8       3.539303e-02                 1 1 ON  9
uu_9       3.008109e-02                 1 1 ON  10
ud_0       9.167595e-01                 1 1 ON  11
ud_1       5.738533e-01                 1 1 ON  12
ud_2       3.477339e-01                 1 1 ON  13
ud_3       1.917785e-01                 1 1 ON  14
ud_4       8.809364e-02                 1 1 ON  15
ud_5       3.296735e-02                 1 1 ON  16
ud_6       3.639728e-02                 1 1 ON  17
ud_7       6.433928e-02                 1 1 ON  18
ud_8       7.401129e-02                 1 1 ON  19
ud_9       5.821511e-02                 1 1 ON  20
eH_0       1.586181e-02                 1 1 ON  21
eH_1       3.218709e-02                 1 1 ON  22
eH_2       -1.127819e-01                1 1 ON  23
eH_3       -9.466532e-02                1 1 ON  24
eH_4       -1.078629e-01                1 1 ON  25
eH_5       -7.750769e-02                1 1 ON  26
eH_6       -3.704741e-02                1 1 ON  27
eH_7       -6.199224e-03                1 1 ON  28
eH_8       1.160749e-02                 1 1 ON  29
eH_9       4.029237e-03                 1 1 ON  30
  </optVariables>
eH
Array
ud
Array
uu
Array
   Restore the number of walkers to 1, removing 0 walkers.
</opt>
</optimization-report>
  QMC Execution time = 2.9429e-01 secs
  Reusing QMCFixedSampleLinearOptimize
 Using QMCCostFunction::QMCCostFunction
 Using Default Cost Function: Cost = <|E-E_ff|^2>

=========================================================
  Start QMCFixedSampleLinearOptimize
  File Root H4-descent.s006 append = no 
=========================================================
  Skip QMCDriver::putQMCInfo 
  Resetting Properties of the walkers 1 x 14
Omega from input file: 0.0000e+00
Current collection step: -1
Target: generalized variational principle

=========================================================
  Start VMC
  File Root H4-descent.s006 append = no 
=========================================================
Using existing walkers 
  Resetting Properties of the walkers 1 x 14

<vmc function="put">
  qmc_counter=6  my_counter=0
  time step      = 5.0000e-02
  blocks         = 200
  steps          = 50
  substeps       = 1
  current        = 0
  target samples = 1.0000e+04
  walkers/mpi    = 1

  stepsbetweensamples = 1
<parameter name="blocks" condition="int">200</parameter>
<parameter name="blocks_between_recompute" condition="int">0</parameter>
<parameter name="check_properties" condition="int">100</parameter>
<parameter name="checkproperties" condition="int">100</parameter>
<parameter name="current" condition="int">0</parameter>
<parameter name="dmcwalkersperthread" condition="real">1.0000e+04</parameter>
<parameter name="fermionicweight" condition="real">1.0000e-04</parameter>
<parameter name="jastrowweight" condition="real">0.0000e+00</parameter>
<parameter name="maxcpusecs" condition="real">3.6000e+05</parameter>
<parameter name="mg_beta" condition="real">0.0000e+00</parameter>
<parameter name="mg_gamma" condition="real">0.0000e+00</parameter>
<parameter name="modifiedguiding" condition="string">ParameterDerivativeAdjusted</parameter>
<parameter name="orboptweight" condition="real">0.0000e+00</parameter>
<parameter name="record_configs" condition="int">0</parameter>
<parameter name="record_walkers" condition="int">1</parameter>
<parameter name="recordconfigs" condition="int">0</parameter>
<parameter name="recordwalkers" condition="int">1</parameter>
<parameter name="rewind" condition="int">0</parameter>
<parameter name="samples" condition="real">1.0000e+04</parameter>
<parameter name="samplesperthread" condition="real">1.0000e+04</parameter>
<parameter name="steps" condition="int">50</parameter>
<parameter name="stepsbetweensamples" condition="int">1</parameter>
<parameter name="store_configs" condition="int">0</parameter>
<parameter name="storeconfigs" condition="int">0</parameter>
<parameter name="sub_steps" condition="int">1</parameter>
<parameter name="substeps" condition="int">1</parameter>
<parameter name="tau" condition="au">5.0000e-02</parameter>
<parameter name="time_step" condition="au">5.0000e-02</parameter>
<parameter name="timestep" condition="au">5.0000e-02</parameter>
<parameter name="use_drift" condition="string">no</parameter>
<parameter name="usedrift" condition="string">no</parameter>
<parameter name="walkers" condition="int">1</parameter>
<parameter name="warmup_steps" condition="int">1000</parameter>
<parameter name="warmupsteps" condition="int">1000</parameter>
  DumpConfig==false Nothing (configurations, state) will be saved.
  Walker Samples are dumped every 1 steps.
</vmc>
    Restarting, cummulative properties:
      energy     = -2.3797e+00
      variance   = 0.0000e+00
      r2accepted = 1.0000e-10
      r2proposed = 1.0000e-10
  Set drift_modifier UNR parameter a = 1.0000e+00
  EstimatorManagerBase::add replace LocalEnergy estimator.
 Using QMCCostFunction::QMCCostFunction
 Using Default Cost Function: Cost = <|E-E_ff|^2>
  Set drift_modifier UNR parameter a = 1.0000e+00
  EstimatorManagerBase::add replace LocalEnergy estimator.
  EstimatorManagerBase::add replace LocalEnergy estimator.
entering engine_start function
<optimization-report>
<vmc stage="main" blocks="200">
  Cannot make clones again. Use existing 1 clones
  Initial partition of walkers 0 1 
Using ParameterDeriv Adjusted Guiding Function

  Using Particle by Particle moves
  Walker moves without drift
  Total Sample Size   =10000
  Walker distribution on root = 0 1 
  Anonymous Buffer size per walker : 1704 Bytes.
MEMORY increase 0 MB VMC::resetRun
====================================================
  SimpleFixedNodeBranch::finalize after a VMC block
    QMC counter        = 6
    time step          = 0.05
    reference energy   = -1.99083
    reference variance = -2.5637e-16
====================================================
  Execution time = 2.0686e-01
</vmc>
<opt stage="setup">
  <log>
     Reading configurations from h5FileRoot H4-descent.s006
  QMCCostFunction is created with 1 threads.
  Using Nonlocal PP in Opt: no
   Number of samples loaded to each thread : 10000 
Value of Filter Bool: false before_first_block_sample: true onDescentStep: true
Before engine_checkConfigurations
Double check filter inside engine_checkConfig: false
 w_tot 9.9991e+03
  VMC Eavg = -2.0539e+00
  VMC Evar = 1.5633e-01
  Total weights = 9.999122475e+03
Energy Average: -2.053942099e+00
Energy Variance: 1.563421129e-01
Weight Total: 2.000000000e+04
VGS Total: 1.999824495e+04
Energy Standard Deviation: 3.954012050e-01
Energy Standard Error: 3.954012050e-03
Target Function Average: 8.837207465e-02
Norm of Gradient Vector: 1.669809203e+00
After engine_checkConfig
  Execution time = 8.7223e-02
  </log>
</opt>
<opt stage="main" walkers="10000">
  <log>
Value of descent_num: 6
Number of Parameters: 31
Descent Number: 6
Finalization Descent Num (should be zero if not on last section): 0
Parameter Type step sizes:  TJF_2Body_eta=1.0000e-03 TJF_1Body_eta=1.0000e-033Body_eta1.0000e-04 F_eta=1.0000e-03 CI_eta=1.0000e-03 Orb_eta=1.0000e-03
Using RMSprop
  Execution time = 2.9411e-01
  </log>
  <optVariables href="H4-descent.s006.opt.xml">
CSFcoeff_1 -5.175746e-01                3 1 ON  0
uu_0       5.690159e-01                 1 1 ON  1
uu_1       3.696026e-01                 1 1 ON  2
uu_2       2.158016e-01                 1 1 ON  3
uu_3       9.306245e-02                 1 1 ON  4
uu_4       9.482851e-03                 1 1 ON  5
uu_5       -3.074889e-02                1 1 ON  6
uu_6       -2.750126e-02                1 1 ON  7
uu_7       7.328017e-03                 1 1 ON  8
uu_8       3.417273e-02                 1 1 ON  9
uu_9       2.961791e-02                 1 1 ON  10
ud_0       9.172945e-01                 1 1 ON  11
ud_1       5.743371e-01                 1 1 ON  12
ud_2       3.474744e-01                 1 1 ON  13
ud_3       1.925417e-01                 1 1 ON  14
ud_4       8.782979e-02                 1 1 ON  15
ud_5       3.373323e-02                 1 1 ON  16
ud_6       3.580123e-02                 1 1 ON  17
ud_7       6.392094e-02                 1 1 ON  18
ud_8       7.538619e-02                 1 1 ON  19
ud_9       5.779650e-02                 1 1 ON  20
eH_0       1.597027e-02                 1 1 ON  21
eH_1       3.142615e-02                 1 1 ON  22
eH_2       -1.123543e-01                1 1 ON  23
eH_3       -9.381388e-02                1 1 ON  24
eH_4       -1.086602e-01                1 1 ON  25
eH_5       -7.780825e-02                1 1 ON  26
eH_6       -3.507243e-02                1 1 ON  27
eH_7       -6.057222e-03                1 1 ON  28
eH_8       9.951321e-03                 1 1 ON  29
eH_9       6.050751e-03                 1 1 ON  30
  </optVariables>
eH
Array
ud
Array
uu
Array
   Restore the number of walkers to 1, removing 0 walkers.
</opt>
</optimization-report>
  QMC Execution time = 2.9511e-01 secs
  Reusing QMCFixedSampleLinearOptimize
 Using QMCCostFunction::QMCCostFunction
 Using Default Cost Function: Cost = <|E-E_ff|^2>

=========================================================
  Start QMCFixedSampleLinearOptimize
  File Root H4-descent.s007 append = no 
=========================================================
  Skip QMCDriver::putQMCInfo 
  Resetting Properties of the walkers 1 x 14
Omega from input file: 0.0000e+00
Current collection step: -1
Target: generalized variational principle

=========================================================
  Start VMC
  File Root H4-descent.s007 append = no 
=========================================================
Using existing walkers 
  Resetting Properties of the walkers 1 x 14

<vmc function="put">
  qmc_counter=7  my_counter=0
  time step      = 5.0000e-02
  blocks         = 200
  steps          = 50
  substeps       = 1
  current        = 0
  target samples = 1.0000e+04
  walkers/mpi    = 1

  stepsbetweensamples = 1
<parameter name="blocks" condition="int">200</parameter>
<parameter name="blocks_between_recompute" condition="int">0</parameter>
<parameter name="check_properties" condition="int">100</parameter>
<parameter name="checkproperties" condition="int">100</parameter>
<parameter name="current" condition="int">0</parameter>
<parameter name="dmcwalkersperthread" condition="real">1.0000e+04</parameter>
<parameter name="fermionicweight" condition="real">1.0000e-04</parameter>
<parameter name="jastrowweight" condition="real">0.0000e+00</parameter>
<parameter name="maxcpusecs" condition="real">3.6000e+05</parameter>
<parameter name="mg_beta" condition="real">0.0000e+00</parameter>
<parameter name="mg_gamma" condition="real">0.0000e+00</parameter>
<parameter name="modifiedguiding" condition="string">ParameterDerivativeAdjusted</parameter>
<parameter name="orboptweight" condition="real">0.0000e+00</parameter>
<parameter name="record_configs" condition="int">0</parameter>
<parameter name="record_walkers" condition="int">1</parameter>
<parameter name="recordconfigs" condition="int">0</parameter>
<parameter name="recordwalkers" condition="int">1</parameter>
<parameter name="rewind" condition="int">0</parameter>
<parameter name="samples" condition="real">1.0000e+04</parameter>
<parameter name="samplesperthread" condition="real">1.0000e+04</parameter>
<parameter name="steps" condition="int">50</parameter>
<parameter name="stepsbetweensamples" condition="int">1</parameter>
<parameter name="store_configs" condition="int">0</parameter>
<parameter name="storeconfigs" condition="int">0</parameter>
<parameter name="sub_steps" condition="int">1</parameter>
<parameter name="substeps" condition="int">1</parameter>
<parameter name="tau" condition="au">5.0000e-02</parameter>
<parameter name="time_step" condition="au">5.0000e-02</parameter>
<parameter name="timestep" condition="au">5.0000e-02</parameter>
<parameter name="use_drift" condition="string">no</parameter>
<parameter name="usedrift" condition="string">no</parameter>
<parameter name="walkers" condition="int">1</parameter>
<parameter name="warmup_steps" condition="int">1000</parameter>
<parameter name="warmupsteps" condition="int">1000</parameter>
  DumpConfig==false Nothing (configurations, state) will be saved.
  Walker Samples are dumped every 1 steps.
</vmc>
    Restarting, cummulative properties:
      energy     = -2.3242e+00
      variance   = 0.0000e+00
      r2accepted = 1.0000e-10
      r2proposed = 1.0000e-10
  Set drift_modifier UNR parameter a = 1.0000e+00
  EstimatorManagerBase::add replace LocalEnergy estimator.
 Using QMCCostFunction::QMCCostFunction
 Using Default Cost Function: Cost = <|E-E_ff|^2>
  Set drift_modifier UNR parameter a = 1.0000e+00
  EstimatorManagerBase::add replace LocalEnergy estimator.
  EstimatorManagerBase::add replace LocalEnergy estimator.
entering engine_start function
<optimization-report>
<vmc stage="main" blocks="200">
  Cannot make clones again. Use existing 1 clones
  Initial partition of walkers 0 1 
Using ParameterDeriv Adjusted Guiding Function

  Using Particle by Particle moves
  Walker moves without drift
  Total Sample Size   =10000
  Walker distribution on root = 0 1 
  Anonymous Buffer size per walker : 1704 Bytes.
MEMORY increase 0 MB VMC::resetRun
====================================================
  SimpleFixedNodeBranch::finalize after a VMC block
    QMC counter        = 7
    time step          = 0.05
    reference energy   = -1.06977
    reference variance = 7.0062e-17
====================================================
  Execution time = 2.0474e-01
</vmc>
<opt stage="setup">
  <log>
     Reading configurations from h5FileRoot H4-descent.s007
  QMCCostFunction is created with 1 threads.
  Using Nonlocal PP in Opt: no
   Number of samples loaded to each thread : 10000 
Value of Filter Bool: false before_first_block_sample: true onDescentStep: true
Before engine_checkConfigurations
Double check filter inside engine_checkConfig: false
 w_tot 9.9991e+03
  VMC Eavg = -2.0722e+00
  VMC Evar = 1.6930e-01
  Total weights = 9.999115589e+03
Energy Average: -2.072198528e+00
Energy Variance: 1.692665160e-01
Weight Total: 2.000000000e+04
VGS Total: 1.999823118e+04
Energy Standard Deviation: 4.114201211e-01
Energy Standard Error: 4.114201211e-03
Target Function Average: 1.056578444e-01
Norm of Gradient Vector: 1.769521489e+00
After engine_checkConfig
  Execution time = 8.8575e-02
  </log>
</opt>
<opt stage="main" walkers="10000">
  <log>
Value of descent_num: 7
Number of Parameters: 31
Descent Number: 7
Finalization Descent Num (should be zero if not on last section): 0
Parameter Type step sizes:  TJF_2Body_eta=1.0000e-03 TJF_1Body_eta=1.0000e-033Body_eta1.0000e-04 F_eta=1.0000e-03 CI_eta=1.0000e-03 Orb_eta=1.0000e-03
Using RMSprop
  Execution time = 2.9334e-01
  </log>
  <optVariables href="H4-descent.s007.opt.xml">
CSFcoeff_1 -5.171563e-01                3 1 ON  0
uu_0       5.685447e-01                 1 1 ON  1
uu_1       3.697902e-01                 1 1 ON  2
uu_2       2.167023e-01                 1 1 ON  3
uu_3       9.353742e-02                 1 1 ON  4
uu_4       7.636943e-03                 1 1 ON  5
uu_5       -3.157921e-02                1 1 ON  6
uu_6       -2.852975e-02                1 1 ON  7
uu_7       7.092777e-03                 1 1 ON  8
uu_8       3.563759e-02                 1 1 ON  9
uu_9       3.094530e-02                 1 1 ON  10
ud_0       9.168301e-01                 1 1 ON  11
ud_1       5.732220e-01                 1 1 ON  12
ud_2       3.476413e-01                 1 1 ON  13
ud_3       1.919412e-01                 1 1 ON  14
ud_4       8.816534e-02                 1 1 ON  15
ud_5       3.441056e-02                 1 1 ON  16
ud_6       3.780254e-02                 1 1 ON  17
ud_7       6.331450e-02                 1 1 ON  18
ud_8       7.408224e-02                 1 1 ON  19
ud_9       5.791146e-02                 1 1 ON  20
eH_0       1.586194e-02                 1 1 ON  21
eH_1       3.136019e-02                 1 1 ON  22
eH_2       -1.126644e-01                1 1 ON  23
eH_3       -9.429091e-02                1 1 ON  24
eH_4       -1.081651e-01                1 1 ON  25
eH_5       -7.836852e-02                1 1 ON  26
eH_6       -3.695136e-02                1 1 ON  27
eH_7       -5.525661e-03                1 1 ON  28
eH_8       1.048494e-02                 1 1 ON  29
eH_9       6.070512e-03                 1 1 ON  30
  </optVariables>
eH
Array
ud
Array
uu
Array
   Restore the number of walkers to 1, removing 0 walkers.
</opt>
</optimization-report>
  QMC Execution time = 2.9363e-01 secs
  Reusing QMCFixedSampleLinearOptimize
 Using QMCCostFunction::QMCCostFunction
 Using Default Cost Function: Cost = <|E-E_ff|^2>

=========================================================
  Start QMCFixedSampleLinearOptimize
  File Root H4-descent.s008 append = no 
=========================================================
  Skip QMCDriver::putQMCInfo 
  Resetting Properties of the walkers 1 x 14
Omega from input file: 0.0000e+00
Current collection step: -1
Target: generalized variational principle

=========================================================
  Start VMC
  File Root H4-descent.s008 append = no 
=========================================================
Using existing walkers 
  Resetting Properties of the walkers 1 x 14

<vmc function="put">
  qmc_counter=8  my_counter=0
  time step      = 5.0000e-02
  blocks         = 200
  steps          = 50
  substeps       = 1
  current        = 0
  target samples = 1.0000e+04
  walkers/mpi    = 1

  stepsbetweensamples = 1
<parameter name="blocks" condition="int">200</parameter>
<parameter name="blocks_between_recompute" condition="int">0</parameter>
<parameter name="check_properties" condition="int">100</parameter>
<parameter name="checkproperties" condition="int">100</parameter>
<parameter name="current" condition="int">0</parameter>
<parameter name="dmcwalkersperthread" condition="real">1.0000e+04</parameter>
<parameter name="fermionicweight" condition="real">1.0000e-04</parameter>
<parameter name="jastrowweight" condition="real">0.0000e+00</parameter>
<parameter name="maxcpusecs" condition="real">3.6000e+05</parameter>
<parameter name="mg_beta" condition="real">0.0000e+00</parameter>
<parameter name="mg_gamma" condition="real">0.0000e+00</parameter>
<parameter name="modifiedguiding" condition="string">ParameterDerivativeAdjusted</parameter>
<parameter name="orboptweight" condition="real">0.0000e+00</parameter>
<parameter name="record_configs" condition="int">0</parameter>
<parameter name="record_walkers" condition="int">1</parameter>
<parameter name="recordconfigs" condition="int">0</parameter>
<parameter name="recordwalkers" condition="int">1</parameter>
<parameter name="rewind" condition="int">0</parameter>
<parameter name="samples" condition="real">1.0000e+04</parameter>
<parameter name="samplesperthread" condition="real">1.0000e+04</parameter>
<parameter name="steps" condition="int">50</parameter>
<parameter name="stepsbetweensamples" condition="int">1</parameter>
<parameter name="store_configs" condition="int">0</parameter>
<parameter name="storeconfigs" condition="int">0</parameter>
<parameter name="sub_steps" condition="int">1</parameter>
<parameter name="substeps" condition="int">1</parameter>
<parameter name="tau" condition="au">5.0000e-02</parameter>
<parameter name="time_step" condition="au">5.0000e-02</parameter>
<parameter name="timestep" condition="au">5.0000e-02</parameter>
<parameter name="use_drift" condition="string">no</parameter>
<parameter name="usedrift" condition="string">no</parameter>
<parameter name="walkers" condition="int">1</parameter>
<parameter name="warmup_steps" condition="int">1000</parameter>
<parameter name="warmupsteps" condition="int">1000</parameter>
  DumpConfig==false Nothing (configurations, state) will be saved.
  Walker Samples are dumped every 1 steps.
</vmc>
    Restarting, cummulative properties:
      energy     = -2.1674e+00
      variance   = 0.0000e+00
      r2accepted = 1.0000e-10
      r2proposed = 1.0000e-10
  Set drift_modifier UNR parameter a = 1.0000e+00
  EstimatorManagerBase::add replace LocalEnergy estimator.
 Using QMCCostFunction::QMCCostFunction
 Using Default Cost Function: Cost = <|E-E_ff|^2>
  Set drift_modifier UNR parameter a = 1.0000e+00
  EstimatorManagerBase::add replace LocalEnergy estimator.
  EstimatorManagerBase::add replace LocalEnergy estimator.
entering engine_start function
<optimization-report>
<vmc stage="main" blocks="200">
  Cannot make clones again. Use existing 1 clones
  Initial partition of walkers 0 1 
Using ParameterDeriv Adjusted Guiding Function

  Using Particle by Particle moves
  Walker moves without drift
  Total Sample Size   =10000
  Walker distribution on root = 0 1 
  Anonymous Buffer size per walker : 1704 Bytes.
MEMORY increase 0 MB VMC::resetRun
====================================================
  SimpleFixedNodeBranch::finalize after a VMC block
    QMC counter        = 8
    time step          = 0.05
    reference energy   = -1.83117
    reference variance = -8.728e-17
====================================================
  Execution time = 2.0450e-01
</vmc>
<opt stage="setup">
  <log>
     Reading configurations from h5FileRoot H4-descent.s008
  QMCCostFunction is created with 1 threads.
  Using Nonlocal PP in Opt: no
   Number of samples loaded to each thread : 10000 
Value of Filter Bool: false before_first_block_sample: true onDescentStep: true
Before engine_checkConfigurations
Double check filter inside engine_checkConfig: false
 w_tot 9.9948e+03
  VMC Eavg = -2.0296e+00
  VMC Evar = 2.7528e-01
  Total weights = 9.994754971e+03
Energy Average: -2.029589710e+00
Energy Variance: 2.641957590e-01
Weight Total: 2.000000000e+04
VGS Total: 1.998950994e+04
Energy Standard Deviation: 5.139997656e-01
Energy Standard Error: 5.139997656e-03
Target Function Average: 1.368562109e-01
Norm of Gradient Vector: 2.063411028e+00
After engine_checkConfig
  Execution time = 8.6496e-02
  </log>
</opt>
<opt stage="main" walkers="10000">
  <log>
Value of descent_num: 8
Number of Parameters: 31
Descent Number: 8
Finalization Descent Num (should be zero if not on last section): 0
Parameter Type step sizes:  TJF_2Body_eta=1.0000e-03 TJF_1Body_eta=1.0000e-033Body_eta1.0000e-04 F_eta=1.0000e-03 CI_eta=1.0000e-03 Orb_eta=1.0000e-03
Using RMSprop
  Execution time = 2.9103e-01
  </log>
  <optVariables href="H4-descent.s008.opt.xml">
CSFcoeff_1 -5.167586e-01                3 1 ON  0
uu_0       5.694873e-01                 1 1 ON  1
uu_1       3.701366e-01                 1 1 ON  2
uu_2       2.145457e-01                 1 1 ON  3
uu_3       9.401294e-02                 1 1 ON  4
uu_4       9.944695e-03                 1 1 ON  5
uu_5       -2.972650e-02                1 1 ON  6
uu_6       -3.021895e-02                1 1 ON  7
uu_7       6.027880e-03                 1 1 ON  8
uu_8       3.516212e-02                 1 1 ON  9
uu_9       2.968185e-02                 1 1 ON  10
ud_0       9.182829e-01                 1 1 ON  11
ud_1       5.737488e-01                 1 1 ON  12
ud_2       3.489294e-01                 1 1 ON  13
ud_3       1.935404e-01                 1 1 ON  14
ud_4       8.732890e-02                 1 1 ON  15
ud_5       3.272523e-02                 1 1 ON  16
ud_6       3.676146e-02                 1 1 ON  17
ud_7       6.392956e-02                 1 1 ON  18
ud_8       7.417692e-02                 1 1 ON  19
ud_9       5.751933e-02                 1 1 ON  20
eH_0       1.723382e-02                 1 1 ON  21
eH_1       3.026003e-02                 1 1 ON  22
eH_2       -1.123078e-01                1 1 ON  23
eH_3       -9.358885e-02                1 1 ON  24
eH_4       -1.081440e-01                1 1 ON  25
eH_5       -7.782609e-02                1 1 ON  26
eH_6       -3.648586e-02                1 1 ON  27
eH_7       -6.245960e-03                1 1 ON  28
eH_8       1.190513e-02                 1 1 ON  29
eH_9       4.920942e-03                 1 1 ON  30
  </optVariables>
eH
Array
ud
Array
uu
Array
   Restore the number of walkers to 1, removing 0 walkers.
</opt>
</optimization-report>
  QMC Execution time = 2.9134e-01 secs
  Reusing QMCFixedSampleLinearOptimize
 Using QMCCostFunction::QMCCostFunction
 Using Default Cost Function: Cost = <|E-E_ff|^2>

=========================================================
  Start QMCFixedSampleLinearOptimize
  File Root H4-descent.s009 append = no 
=========================================================
  Skip QMCDriver::putQMCInfo 
  Resetting Properties of the walkers 1 x 14
Omega from input file: 0.0000e+00
Current collection step: -1
Target: generalized variational principle

=========================================================
  Start VMC
  File Root H4-descent.s009 append = no 
=========================================================
Using existing walkers 
  Resetting Properties of the walkers 1 x 14

<vmc function="put">
  qmc_counter=9  my_counter=0
  time step      = 5.0000e-02
  blocks         = 200
  steps          = 50
  substeps       = 1
  current        = 0
  target samples = 1.0000e+04
  walkers/mpi    = 1

  stepsbetweensamples = 1
<parameter name="blocks" condition="int">200</parameter>
<parameter name="blocks_between_recompute" condition="int">0</parameter>
<parameter name="check_properties" condition="int">100</parameter>
<parameter name="checkproperties" condition="int">100</parameter>
<parameter name="current" condition="int">0</parameter>
<parameter name="dmcwalkersperthread" condition="real">1.0000e+04</parameter>
<parameter name="fermionicweight" condition="real">1.0000e-04</parameter>
<parameter name="jastrowweight" condition="real">0.0000e+00</parameter>
<parameter name="maxcpusecs" condition="real">3.6000e+05</parameter>
<parameter name="mg_beta" condition="real">0.0000e+00</parameter>
<parameter name="mg_gamma" condition="real">0.0000e+00</parameter>
<parameter name="modifiedguiding" condition="string">ParameterDerivativeAdjusted</parameter>
<parameter name="orboptweight" condition="real">0.0000e+00</parameter>
<parameter name="record_configs" condition="int">0</parameter>
<parameter name="record_walkers" condition="int">1</parameter>
<parameter name="recordconfigs" condition="int">0</parameter>
<parameter name="recordwalkers" condition="int">1</parameter>
<parameter name="rewind" condition="int">0</parameter>
<parameter name="samples" condition="real">1.0000e+04</parameter>
<parameter name="samplesperthread" condition="real">1.0000e+04</parameter>
<parameter name="steps" condition="int">50</parameter>
<parameter name="stepsbetweensamples" condition="int">1</parameter>
<parameter name="store_configs" condition="int">0</parameter>
<parameter name="storeconfigs" condition="int">0</parameter>
<parameter name="sub_steps" condition="int">1</parameter>
<parameter name="substeps" condition="int">1</parameter>
<parameter name="tau" condition="au">5.0000e-02</parameter>
<parameter name="time_step" condition="au">5.0000e-02</parameter>
<parameter name="timestep" condition="au">5.0000e-02</parameter>
<parameter name="use_drift" condition="string">no</parameter>
<parameter name="usedrift" condition="string">no</parameter>
<parameter name="walkers" condition="int">1</parameter>
<parameter name="warmup_steps" condition="int">1000</parameter>
<parameter name="warmupsteps" condition="int">1000</parameter>
[...]
<parameter name="walkers" condition="int">1</parameter>
<parameter name="warmup_steps" condition="int">1000</parameter>
<parameter name="warmupsteps" condition="int">1000</parameter>
  DumpConfig==false Nothing (configurations, state) will be saved.
  Walker Samples are dumped every 1 steps.
</vmc>
    Restarting, cummulative properties:
      energy     = -2.0504e+00
      variance   = 0.0000e+00
      r2accepted = 1.0000e-10
      r2proposed = 1.0000e-10
  Set drift_modifier UNR parameter a = 1.0000e+00
  EstimatorManagerBase::add replace LocalEnergy estimator.
 Using QMCCostFunction::QMCCostFunction
 Using Default Cost Function: Cost = <|E-E_ff|^2>
  Set drift_modifier UNR parameter a = 1.0000e+00
  EstimatorManagerBase::add replace LocalEnergy estimator.
  EstimatorManagerBase::add replace LocalEnergy estimator.
entering engine_start function
<optimization-report>
<vmc stage="main" blocks="200">
  Cannot make clones again. Use existing 1 clones
  Initial partition of walkers 0 1 
Using ParameterDeriv Adjusted Guiding Function

  Using Particle by Particle moves
  Walker moves without drift
  Total Sample Size   =10000
  Walker distribution on root = 0 1 
  Anonymous Buffer size per walker : 1704 Bytes.
MEMORY increase 0 MB VMC::resetRun
====================================================
  SimpleFixedNodeBranch::finalize after a VMC block
    QMC counter        = 97
    time step          = 0.05
    reference energy   = -1.40502
    reference variance = 7.76211e-17
====================================================
  Execution time = 2.0408e-01
</vmc>
<opt stage="setup">
  <log>
     Reading configurations from h5FileRoot H4-descent.s097
  QMCCostFunction is created with 1 threads.
  Using Nonlocal PP in Opt: no
   Number of samples loaded to each thread : 10000 
Value of Filter Bool: false before_first_block_sample: true onDescentStep: true
Before engine_checkConfigurations
Double check filter inside engine_checkConfig: false
 w_tot 9.9976e+03
  VMC Eavg = -1.9785e+00
  VMC Evar = 2.6689e-01
  Total weights = 9.997569575e+03
Energy Average: -1.978541368e+00
Energy Variance: 2.666879972e-01
Weight Total: 2.000000000e+04
VGS Total: 1.999513915e+04
Energy Standard Deviation: 5.164184323e-01
Energy Standard Error: 5.164184323e-03
Target Function Average: 3.160129096e-01
Norm of Gradient Vector: 3.900078831e+00
After engine_checkConfig
  Execution time = 8.9133e-02
  </log>
</opt>
<opt stage="main" walkers="10000">
  <log>
Value of descent_num: 97
Number of Parameters: 31
Descent Number: 97
Finalization Descent Num (should be zero if not on last section): 0
Parameter Type step sizes:  TJF_2Body_eta=1.0000e-03 TJF_1Body_eta=1.0000e-033Body_eta1.0000e-04 F_eta=1.0000e-03 CI_eta=1.0000e-03 Orb_eta=1.0000e-03
Using RMSprop
  Execution time = 2.9325e-01
  </log>
  <optVariables href="H4-descent.s097.opt.xml">
CSFcoeff_1 -5.012910e-01                3 1 ON  0
uu_0       5.697403e-01                 1 1 ON  1
uu_1       3.719050e-01                 1 1 ON  2
uu_2       2.222854e-01                 1 1 ON  3
uu_3       1.000399e-01                 1 1 ON  4
uu_4       1.558927e-02                 1 1 ON  5
uu_5       -3.223431e-02                1 1 ON  6
uu_6       -3.419635e-02                1 1 ON  7
uu_7       9.186681e-04                 1 1 ON  8
uu_8       2.881776e-02                 1 1 ON  9
uu_9       2.743074e-02                 1 1 ON  10
ud_0       9.175152e-01                 1 1 ON  11
ud_1       5.731188e-01                 1 1 ON  12
ud_2       3.498761e-01                 1 1 ON  13
ud_3       1.961678e-01                 1 1 ON  14
ud_4       8.894179e-02                 1 1 ON  15
ud_5       3.504118e-02                 1 1 ON  16
ud_6       3.382528e-02                 1 1 ON  17
ud_7       6.190389e-02                 1 1 ON  18
ud_8       7.196664e-02                 1 1 ON  19
ud_9       5.792813e-02                 1 1 ON  20
eH_0       1.764732e-02                 1 1 ON  21
eH_1       3.549607e-02                 1 1 ON  22
eH_2       -1.103905e-01                1 1 ON  23
eH_3       -9.345059e-02                1 1 ON  24
eH_4       -1.124242e-01                1 1 ON  25
eH_5       -7.732326e-02                1 1 ON  26
eH_6       -3.236531e-02                1 1 ON  27
eH_7       -2.574563e-03                1 1 ON  28
eH_8       1.496165e-02                 1 1 ON  29
eH_9       6.800938e-03                 1 1 ON  30
  </optVariables>
eH
Array
ud
Array
uu
Array
   Restore the number of walkers to 1, removing 0 walkers.
</opt>
</optimization-report>
  QMC Execution time = 2.9350e-01 secs
  Reusing QMCFixedSampleLinearOptimize
 Using QMCCostFunction::QMCCostFunction
 Using Default Cost Function: Cost = <|E-E_ff|^2>

=========================================================
  Start QMCFixedSampleLinearOptimize
  File Root H4-descent.s098 append = no 
=========================================================
  Skip QMCDriver::putQMCInfo 
  Resetting Properties of the walkers 1 x 14
Omega from input file: 0.0000e+00
Current collection step: -1
Target: generalized variational principle

=========================================================
  Start VMC
  File Root H4-descent.s098 append = no 
=========================================================
Using existing walkers 
  Resetting Properties of the walkers 1 x 14

<vmc function="put">
  qmc_counter=98  my_counter=0
  time step      = 5.0000e-02
  blocks         = 200
  steps          = 50
  substeps       = 1
  current        = 0
  target samples = 1.0000e+04
  walkers/mpi    = 1

  stepsbetweensamples = 1
<parameter name="blocks" condition="int">200</parameter>
<parameter name="blocks_between_recompute" condition="int">0</parameter>
<parameter name="check_properties" condition="int">100</parameter>
<parameter name="checkproperties" condition="int">100</parameter>
<parameter name="current" condition="int">0</parameter>
<parameter name="dmcwalkersperthread" condition="real">1.0000e+04</parameter>
<parameter name="fermionicweight" condition="real">1.0000e-04</parameter>
<parameter name="jastrowweight" condition="real">0.0000e+00</parameter>
<parameter name="maxcpusecs" condition="real">3.6000e+05</parameter>
<parameter name="mg_beta" condition="real">0.0000e+00</parameter>
<parameter name="mg_gamma" condition="real">0.0000e+00</parameter>
<parameter name="modifiedguiding" condition="string">ParameterDerivativeAdjusted</parameter>
<parameter name="orboptweight" condition="real">0.0000e+00</parameter>
<parameter name="record_configs" condition="int">0</parameter>
<parameter name="record_walkers" condition="int">1</parameter>
<parameter name="recordconfigs" condition="int">0</parameter>
<parameter name="recordwalkers" condition="int">1</parameter>
<parameter name="rewind" condition="int">0</parameter>
<parameter name="samples" condition="real">1.0000e+04</parameter>
<parameter name="samplesperthread" condition="real">1.0000e+04</parameter>
<parameter name="steps" condition="int">50</parameter>
<parameter name="stepsbetweensamples" condition="int">1</parameter>
<parameter name="store_configs" condition="int">0</parameter>
<parameter name="storeconfigs" condition="int">0</parameter>
<parameter name="sub_steps" condition="int">1</parameter>
<parameter name="substeps" condition="int">1</parameter>
<parameter name="tau" condition="au">5.0000e-02</parameter>
<parameter name="time_step" condition="au">5.0000e-02</parameter>
<parameter name="timestep" condition="au">5.0000e-02</parameter>
<parameter name="use_drift" condition="string">no</parameter>
<parameter name="usedrift" condition="string">no</parameter>
<parameter name="walkers" condition="int">1</parameter>
<parameter name="warmup_steps" condition="int">1000</parameter>
<parameter name="warmupsteps" condition="int">1000</parameter>
  DumpConfig==false Nothing (configurations, state) will be saved.
  Walker Samples are dumped every 1 steps.
</vmc>
    Restarting, cummulative properties:
      energy     = -2.0438e+00
      variance   = 0.0000e+00
      r2accepted = 1.0000e-10
      r2proposed = 1.0000e-10
  Set drift_modifier UNR parameter a = 1.0000e+00
  EstimatorManagerBase::add replace LocalEnergy estimator.
 Using QMCCostFunction::QMCCostFunction
 Using Default Cost Function: Cost = <|E-E_ff|^2>
  Set drift_modifier UNR parameter a = 1.0000e+00
  EstimatorManagerBase::add replace LocalEnergy estimator.
  EstimatorManagerBase::add replace LocalEnergy estimator.
entering engine_start function
<optimization-report>
<vmc stage="main" blocks="200">
  Cannot make clones again. Use existing 1 clones
  Initial partition of walkers 0 1 
Using ParameterDeriv Adjusted Guiding Function

  Using Particle by Particle moves
  Walker moves without drift
  Total Sample Size   =10000
  Walker distribution on root = 0 1 
  Anonymous Buffer size per walker : 1704 Bytes.
MEMORY increase 0 MB VMC::resetRun
====================================================
  SimpleFixedNodeBranch::finalize after a VMC block
    QMC counter        = 98
    time step          = 0.05
    reference energy   = -1.73922
    reference variance = 8.17396e-17
====================================================
  Execution time = 2.0331e-01
</vmc>
<opt stage="setup">
  <log>
     Reading configurations from h5FileRoot H4-descent.s098
  QMCCostFunction is created with 1 threads.
  Using Nonlocal PP in Opt: no
   Number of samples loaded to each thread : 10000 
Value of Filter Bool: false before_first_block_sample: true onDescentStep: true
Before engine_checkConfigurations
Double check filter inside engine_checkConfig: false
 w_tot 9.9987e+03
  VMC Eavg = -2.0588e+00
  VMC Evar = 1.9318e-01
  Total weights = 9.998732050e+03
Energy Average: -2.058791846e+00
Energy Variance: 1.929817275e-01
Weight Total: 2.000000000e+04
VGS Total: 1.999746410e+04
Energy Standard Deviation: 4.392968558e-01
Energy Standard Error: 4.392968558e-03
Target Function Average: 1.744959057e-01
Norm of Gradient Vector: 2.686728455e+00
After engine_checkConfig
  Execution time = 8.7870e-02
  </log>
</opt>
<opt stage="main" walkers="10000">
  <log>
Value of descent_num: 98
Number of Parameters: 31
Descent Number: 98
Finalization Descent Num (should be zero if not on last section): 0
Parameter Type step sizes:  TJF_2Body_eta=1.0000e-03 TJF_1Body_eta=1.0000e-033Body_eta1.0000e-04 F_eta=1.0000e-03 CI_eta=1.0000e-03 Orb_eta=1.0000e-03
Using RMSprop
  Execution time = 2.9121e-01
  </log>
  <optVariables href="H4-descent.s098.opt.xml">
CSFcoeff_1 -5.012347e-01                3 1 ON  0
uu_0       5.696593e-01                 1 1 ON  1
uu_1       3.721126e-01                 1 1 ON  2
uu_2       2.222447e-01                 1 1 ON  3
uu_3       9.986651e-02                 1 1 ON  4
uu_4       1.556519e-02                 1 1 ON  5
uu_5       -3.198976e-02                1 1 ON  6
uu_6       -3.414469e-02                1 1 ON  7
uu_7       7.316794e-04                 1 1 ON  8
uu_8       2.885521e-02                 1 1 ON  9
uu_9       2.747168e-02                 1 1 ON  10
ud_0       9.174022e-01                 1 1 ON  11
ud_1       5.732721e-01                 1 1 ON  12
ud_2       3.498103e-01                 1 1 ON  13
ud_3       1.960614e-01                 1 1 ON  14
ud_4       8.909827e-02                 1 1 ON  15
ud_5       3.495138e-02                 1 1 ON  16
ud_6       3.353958e-02                 1 1 ON  17
ud_7       6.190991e-02                 1 1 ON  18
ud_8       7.223045e-02                 1 1 ON  19
ud_9       5.818020e-02                 1 1 ON  20
eH_0       1.752432e-02                 1 1 ON  21
eH_1       3.555439e-02                 1 1 ON  22
eH_2       -1.103351e-01                1 1 ON  23
eH_3       -9.350780e-02                1 1 ON  24
eH_4       -1.123675e-01                1 1 ON  25
eH_5       -7.722718e-02                1 1 ON  26
eH_6       -3.253881e-02                1 1 ON  27
eH_7       -2.740077e-03                1 1 ON  28
eH_8       1.511256e-02                 1 1 ON  29
eH_9       6.915751e-03                 1 1 ON  30
  </optVariables>
eH
Array
ud
Array
uu
Array
   Restore the number of walkers to 1, removing 0 walkers.
</opt>
</optimization-report>
  QMC Execution time = 2.9144e-01 secs
  Reusing QMCFixedSampleLinearOptimize
 Using QMCCostFunction::QMCCostFunction
 Using Default Cost Function: Cost = <|E-E_ff|^2>

=========================================================
  Start QMCFixedSampleLinearOptimize
  File Root H4-descent.s099 append = no 
=========================================================
  Skip QMCDriver::putQMCInfo 
  Resetting Properties of the walkers 1 x 14
Omega from input file: 0.0000e+00
Current collection step: -1
Target: generalized variational principle

=========================================================
  Start VMC
  File Root H4-descent.s099 append = no 
=========================================================
Using existing walkers 
  Resetting Properties of the walkers 1 x 14

<vmc function="put">
  qmc_counter=99  my_counter=0
  time step      = 5.0000e-02
  blocks         = 200
  steps          = 50
  substeps       = 1
  current        = 0
  target samples = 1.0000e+04
  walkers/mpi    = 1

  stepsbetweensamples = 1
<parameter name="blocks" condition="int">200</parameter>
<parameter name="blocks_between_recompute" condition="int">0</parameter>
<parameter name="check_properties" condition="int">100</parameter>
<parameter name="checkproperties" condition="int">100</parameter>
<parameter name="current" condition="int">0</parameter>
<parameter name="dmcwalkersperthread" condition="real">1.0000e+04</parameter>
<parameter name="fermionicweight" condition="real">1.0000e-04</parameter>
<parameter name="jastrowweight" condition="real">0.0000e+00</parameter>
<parameter name="maxcpusecs" condition="real">3.6000e+05</parameter>
<parameter name="mg_beta" condition="real">0.0000e+00</parameter>
<parameter name="mg_gamma" condition="real">0.0000e+00</parameter>
<parameter name="modifiedguiding" condition="string">ParameterDerivativeAdjusted</parameter>
<parameter name="orboptweight" condition="real">0.0000e+00</parameter>
<parameter name="record_configs" condition="int">0</parameter>
<parameter name="record_walkers" condition="int">1</parameter>
<parameter name="recordconfigs" condition="int">0</parameter>
<parameter name="recordwalkers" condition="int">1</parameter>
<parameter name="rewind" condition="int">0</parameter>
<parameter name="samples" condition="real">1.0000e+04</parameter>
<parameter name="samplesperthread" condition="real">1.0000e+04</parameter>
<parameter name="steps" condition="int">50</parameter>
<parameter name="stepsbetweensamples" condition="int">1</parameter>
<parameter name="store_configs" condition="int">0</parameter>
<parameter name="storeconfigs" condition="int">0</parameter>
<parameter name="sub_steps" condition="int">1</parameter>
<parameter name="substeps" condition="int">1</parameter>
<parameter name="tau" condition="au">5.0000e-02</parameter>
<parameter name="time_step" condition="au">5.0000e-02</parameter>
<parameter name="timestep" condition="au">5.0000e-02</parameter>
<parameter name="use_drift" condition="string">no</parameter>
<parameter name="usedrift" condition="string">no</parameter>
<parameter name="walkers" condition="int">1</parameter>
<parameter name="warmup_steps" condition="int">1000</parameter>
<parameter name="warmupsteps" condition="int">1000</parameter>
  DumpConfig==false Nothing (configurations, state) will be saved.
  Walker Samples are dumped every 1 steps.
</vmc>
    Restarting, cummulative properties:
      energy     = -2.0407e+00
      variance   = 0.0000e+00
      r2accepted = 1.0000e-10
      r2proposed = 1.0000e-10
  Set drift_modifier UNR parameter a = 1.0000e+00
  EstimatorManagerBase::add replace LocalEnergy estimator.
 Using QMCCostFunction::QMCCostFunction
 Using Default Cost Function: Cost = <|E-E_ff|^2>
  Set drift_modifier UNR parameter a = 1.0000e+00
  EstimatorManagerBase::add replace LocalEnergy estimator.
  EstimatorManagerBase::add replace LocalEnergy estimator.
entering engine_start function
<optimization-report>
<vmc stage="main" blocks="200">
  Cannot make clones again. Use existing 1 clones
  Initial partition of walkers 0 1 
Using ParameterDeriv Adjusted Guiding Function

  Using Particle by Particle moves
  Walker moves without drift
  Total Sample Size   =10000
  Walker distribution on root = 0 1 
  Anonymous Buffer size per walker : 1704 Bytes.
MEMORY increase 0 MB VMC::resetRun
====================================================
  SimpleFixedNodeBranch::finalize after a VMC block
    QMC counter        = 99
    time step          = 0.05
    reference energy   = -2.2451
    reference variance = -7.51669e-17
====================================================
  Execution time = 2.0530e-01
</vmc>
<opt stage="setup">
  <log>
     Reading configurations from h5FileRoot H4-descent.s099
  QMCCostFunction is created with 1 threads.
  Using Nonlocal PP in Opt: no
   Number of samples loaded to each thread : 10000 
Value of Filter Bool: false before_first_block_sample: true onDescentStep: true
Before engine_checkConfigurations
Double check filter inside engine_checkConfig: false
 w_tot 9.9990e+03
  VMC Eavg = -2.1112e+00
  VMC Evar = 1.4661e-01
  Total weights = 9.998994145e+03
Energy Average: -2.111188874e+00
Energy Variance: 1.465164370e-01
Weight Total: 2.000000000e+04
VGS Total: 1.999798829e+04
Energy Standard Deviation: 3.827746556e-01
Energy Standard Error: 3.827746556e-03
Target Function Average: 1.373965313e-01
Norm of Gradient Vector: 2.355900471e+00
After engine_checkConfig
  Execution time = 8.8560e-02
  </log>
</opt>
<opt stage="main" walkers="10000">
  <log>
Value of descent_num: 99
Number of Parameters: 31
Descent Number: 99
Finalization Descent Num (should be zero if not on last section): 0
Parameter Type step sizes:  TJF_2Body_eta=1.0000e-03 TJF_1Body_eta=1.0000e-033Body_eta1.0000e-04 F_eta=1.0000e-03 CI_eta=1.0000e-03 Orb_eta=1.0000e-03
Using RMSprop
  Execution time = 2.9389e-01
  </log>
  <optVariables href="H4-descent.s099.opt.xml">
CSFcoeff_1 -5.011760e-01                3 1 ON  0
uu_0       5.698871e-01                 1 1 ON  1
uu_1       3.719682e-01                 1 1 ON  2
uu_2       2.220958e-01                 1 1 ON  3
uu_3       9.992769e-02                 1 1 ON  4
uu_4       1.560606e-02                 1 1 ON  5
uu_5       -3.211964e-02                1 1 ON  6
uu_6       -3.409085e-02                1 1 ON  7
uu_7       7.581202e-04                 1 1 ON  8
uu_8       2.887446e-02                 1 1 ON  9
uu_9       2.756155e-02                 1 1 ON  10
ud_0       9.173071e-01                 1 1 ON  11
ud_1       5.730131e-01                 1 1 ON  12
ud_2       3.495882e-01                 1 1 ON  13
ud_3       1.961916e-01                 1 1 ON  14
ud_4       8.923213e-02                 1 1 ON  15
ud_5       3.496812e-02                 1 1 ON  16
ud_6       3.345932e-02                 1 1 ON  17
ud_7       6.193502e-02                 1 1 ON  18
ud_8       7.235940e-02                 1 1 ON  19
ud_9       5.808330e-02                 1 1 ON  20
eH_0       1.740833e-02                 1 1 ON  21
eH_1       3.551073e-02                 1 1 ON  22
eH_2       -1.105172e-01                1 1 ON  23
eH_3       -9.341728e-02                1 1 ON  24
eH_4       -1.123886e-01                1 1 ON  25
eH_5       -7.741572e-02                1 1 ON  26
eH_6       -3.230755e-02                1 1 ON  27
eH_7       -2.660479e-03                1 1 ON  28
eH_8       1.501143e-02                 1 1 ON  29
eH_9       6.949591e-03                 1 1 ON  30
  </optVariables>
eH
Array
ud
Array
uu
Array
   Restore the number of walkers to 1, removing 0 walkers.
</opt>
</optimization-report>
  QMC Execution time = 2.9412e-01 secs
  Total Execution time = 2.9535e+01 secs

=========================================================
  A new xml input file : H4-descent.s099.cont.xml
