Rank =    0  Free Memory = 82577 MB
Rank =   32  Free Memory = 78890 MB
Rank =   33  Free Memory = 78890 MB
Rank =   34  Free Memory = 78890 MB
Rank =   35  Free Memory = 78890 MB
Rank =   36  Free Memory = 78890 MB
Rank =   37  Free Memory = 78890 MB
Rank =   38  Free Memory = 78890 MB
Rank =   39  Free Memory = 78890 MB
Rank =   40  Free Memory = 78890 MB
Rank =   41  Free Memory = 78890 MB
Rank =   42  Free Memory = 78890 MB
Rank =   43  Free Memory = 78890 MB
Rank =   44  Free Memory = 78890 MB
Rank =   45  Free Memory = 78890 MB
Rank =   46  Free Memory = 78890 MB
Rank =   47  Free Memory = 78890 MB
Rank =   48  Free Memory = 78890 MB
Rank =   49  Free Memory = 78890 MB
Rank =   50  Free Memory = 78890 MB
Rank =   51  Free Memory = 78890 MB
Rank =   52  Free Memory = 78890 MB
Rank =   53  Free Memory = 78890 MB
Rank =   54  Free Memory = 78890 MB
Rank =   55  Free Memory = 78890 MB
Rank =   56  Free Memory = 78890 MB
Rank =   57  Free Memory = 78890 MB
Rank =   58  Free Memory = 78890 MB
Rank =   59  Free Memory = 78890 MB
Rank =   60  Free Memory = 78890 MB
  Input file(s): opt_form_n2pistar_gvpabs_run001p.xml 

=====================================================
                    QMCPACK 3.7.9

       (c) Copyright 2003-  QMCPACK developers

                    Please cite:
 J. Kim et al. J. Phys. Cond. Mat. 30 195901 (2018)
      https://doi.org/10.1088/1361-648X/aab9c3

  Git branch: gvp
  Last git commit: 39b7557df04c29964085ccccce933740e3918067-dirty
  Last git commit date: Wed Mar 22 11:37:25 2023 -0700
  Last git commit subject: deleting more debugging statements
=====================================================
  Global options 

  Total number of MPI ranks = 128
  Number of MPI groups      = 1
  MPI group ID              = 0
  Number of ranks in group  = 128
  MPI ranks per node        = 32
  OMP 1st level threads     = 1
  OMP nested threading disabled or only 1 thread on the 2nd level

  Precision used in this calculation, see definitions in the manual:
  Base precision      = double
  Full precision      = double

  Structure-of-arrays (SoA) optimization enabled

  Input XML = opt_form_n2pistar_gvpabs_run001p.xml
Rank =   61  Free Memory = 78890 MB
Rank =   62  Free Memory = 78890 MB
Rank =   63  Free Memory = 78890 MB
Rank =   64  Free Memory = 90768 MB
Rank =   65  Free Memory = 90768 MB
Rank =   66  Free Memory = 90768 MB
Rank =   67  Free Memory = 90768 MB
Rank =   68  Free Memory = 90768 MB
Rank =   69  Free Memory = 90768 MB
Rank =   70  Free Memory = 90768 MB
Rank =   71  Free Memory = 90768 MB
Rank =   72  Free Memory = 90768 MB
Rank =   73  Free Memory = 90768 MB
Rank =   74  Free Memory = 90768 MB
Rank =   75  Free Memory = 90768 MB
Rank =   76  Free Memory = 90768 MB
Rank =   77  Free Memory = 90768 MB
Rank =   78  Free Memory = 90768 MB
Rank =   79  Free Memory = 90767 MB
Rank =   80  Free Memory = 90767 MB
Rank =   81  Free Memory = 90767 MB
Rank =   82  Free Memory = 90767 MB
Rank =   83  Free Memory = 90767 MB
Rank =   84  Free Memory = 90767 MB
Rank =   85  Free Memory = 90767 MB
Rank =   86  Free Memory = 90767 MB
Rank =   87  Free Memory = 90767 MB
Rank =   88  Free Memory = 90767 MB
Rank =   89  Free Memory = 90767 MB
Rank =   90  Free Memory = 90767 MB
Rank =   91  Free Memory = 90767 MB
Rank =   92  Free Memory = 90767 MB
Rank =   93  Free Memory = 90767 MB
Rank =   94  Free Memory = 90767 MB
Rank =   95  Free Memory = 90767 MB
Rank =   96  Free Memory = 80274 MB
Rank =   97  Free Memory = 80274 MB
Rank =   98  Free Memory = 80274 MB
Rank =   99  Free Memory = 80274 MB
Rank =  100  Free Memory = 80274 MB
Rank =  101  Free Memory = 80274 MB
Rank =  102  Free Memory = 80274 MB
Rank =  103  Free Memory = 80274 MB
Rank =  104  Free Memory = 80274 MB
Rank =  105  Free Memory = 80274 MB
Rank =  106  Free Memory = 80274 MB
Rank =  107  Free Memory = 80274 MB
Rank =  108  Free Memory = 80274 MB
Rank =  109  Free Memory = 80274 MB
Rank =  110  Free Memory = 80274 MB
Rank =  111  Free Memory = 80274 MB
Rank =  112  Free Memory = 80274 MB
Rank =  113  Free Memory = 80274 MB
Rank =  114  Free Memory = 80274 MB
Rank =  115  Free Memory = 80274 MB
Rank =  116  Free Memory = 80274 MB
Rank =  117  Free Memory = 80274 MB
Rank =  118  Free Memory = 80274 MB
Rank =  119  Free Memory = 80274 MB
Rank =  120  Free Memory = 80274 MB
Rank =  121  Free Memory = 80274 MB
Rank =  122  Free Memory = 80274 MB
Rank =  123  Free Memory = 80274 MB
Rank =  124  Free Memory = 80274 MB
Rank =  125  Free Memory = 80274 MB
Rank =  126  Free Memory = 80274 MB
Rank =  127  Free Memory = 80274 MB
Rank =   31  Free Memory = 82564 MB
Rank =    1  Free Memory = 82577 MB
Rank =    2  Free Memory = 82577 MB
Rank =    3  Free Memory = 82577 MB
Rank =    4  Free Memory = 82577 MB
Rank =    5  Free Memory = 82577 MB
Rank =    6  Free Memory = 82577 MB
Rank =    7  Free Memory = 82577 MB
Rank =    8  Free Memory = 82577 MB
Rank =    9  Free Memory = 82577 MB
Rank =   10  Free Memory = 82577 MB
Rank =   11  Free Memory = 82577 MB
Rank =   12  Free Memory = 82577 MB
Rank =   13  Free Memory = 82577 MB
Rank =   14  Free Memory = 82577 MB
Rank =   15  Free Memory = 82567 MB
Rank =   16  Free Memory = 82566 MB
Rank =   17  Free Memory = 82565 MB
Rank =   18  Free Memory = 82565 MB
Rank =   19  Free Memory = 82565 MB
Rank =   20  Free Memory = 82565 MB
Rank =   21  Free Memory = 82564 MB
Rank =   22  Free Memory = 82564 MB
Rank =   23  Free Memory = 82564 MB
Rank =   24  Free Memory = 82564 MB
Rank =   25  Free Memory = 82564 MB
Rank =   26  Free Memory = 82564 MB
Rank =   27  Free Memory = 82564 MB
Rank =   28  Free Memory = 82564 MB
Rank =   29  Free Memory = 82564 MB
Rank =   30  Free Memory = 82564 MB

  Project = FORM
  date    = 2023-04-10 15:01:49 PDT
  host    = n0059.savio3

 Random Number
 -------------
  Offset for the random number seeds based on time: 845

  Range of prime numbers to use as seeds over processors and threads = 6553-7687


 Particle Set 
 ------------
  Name: e
  All the species have the same mass 1
  Particle set size: 12

 Particle Set 
 ------------
  Name: ion0
  All the species have the same mass 1
  Particle set size: 4

 Wavefunction setup: 
 ------------------- 
  Name: psi0

   Jastrow
   -------
    Name: J2   Type: Two-Body   Function: Bspline

    Radial function for species: u - u
     Number of parameters: 10
     Cusp: -0.25
     Cutoff radius: 10

     Name                        Value Type Recompute Use Index
     ---- ---------------------------- ---- --------- --- -----
     uu_0                 2.958764e-01    1         1  ON     0
     uu_1                 1.203384e-01    1         1  ON     1
     uu_2                 6.571371e-03    1         1  ON     2
     uu_3                -6.080957e-02    1         1  ON     3
     uu_4                -1.014973e-01    1         1  ON     4
     uu_5                -1.274550e-01    1         1  ON     5
     uu_6                -1.430049e-01    1         1  ON     6
     uu_7                -1.469879e-01    1         1  ON     7
     uu_8                -1.394231e-01    1         1  ON     8
     uu_9                -1.149235e-01    1         1  ON     9

    Radial function for species: u - d
     Number of parameters: 10
     Cusp: -5.000000e-01
     Cutoff radius: 1.000000e+01

     Name                        Value Type Recompute Use Index
     ---- ---------------------------- ---- --------- --- -----
     ud_0                 4.126113e-01    1         1  ON     0
     ud_1                 1.303814e-01    1         1  ON     1
     ud_2                -1.634669e-02    1         1  ON     2
     ud_3                -9.445320e-02    1         1  ON     3
     ud_4                -1.373934e-01    1         1  ON     4
     ud_5                -1.624443e-01    1         1  ON     5
     ud_6                -1.757363e-01    1         1  ON     6
     ud_7                -1.770325e-01    1         1  ON     7
     ud_8                -1.652024e-01    1         1  ON     8
     ud_9                -1.362951e-01    1         1  ON     9


   Jastrow
   -------
    Name: J1   Type: One-Body   Function: Bspline

    Radial function for element: C
     Number of parameters: 10
     Cusp: 0.000000e+00
     Cutoff radius: 1.000000e+01

     Name                        Value Type Recompute Use Index
     ---- ---------------------------- ---- --------- --- -----
     eC_0                -5.840746e-01    1         1  ON     0
     eC_1                -4.321342e-01    1         1  ON     1
     eC_2                -1.799119e-01    1         1  ON     2
     eC_3                -2.508675e-02    1         1  ON     3
     eC_4                 5.726857e-02    1         1  ON     4
     eC_5                 1.600612e-01    1         1  ON     5
     eC_6                 2.596365e-01    1         1  ON     6
     eC_7                 3.749751e-01    1         1  ON     7
     eC_8                 2.806664e-01    1         1  ON     8
     eC_9                 8.159703e-02    1         1  ON     9

    Radial function for element: O
     Number of parameters: 10
     Cusp: 0.000000e+00
     Cutoff radius: 1.000000e+01

     Name                        Value Type Recompute Use Index
     ---- ---------------------------- ---- --------- --- -----
     eO_0                -1.185902e+00    1         1  ON     0
     eO_1                -8.085603e-01    1         1  ON     1
     eO_2                -3.432509e-01    1         1  ON     2
     eO_3                -1.421100e-03    1         1  ON     3
     eO_4                 2.240795e-01    1         1  ON     4
     eO_5                 3.899345e-01    1         1  ON     5
     eO_6                 4.345738e-01    1         1  ON     6
     eO_7                 4.309223e-01    1         1  ON     7
     eO_8                 4.088877e-01    1         1  ON     8
     eO_9                 3.110625e-01    1         1  ON     9

    Radial function for element: H1
     Number of parameters: 10
     Cusp: 0.000000e+00
     Cutoff radius: 1.000000e+01

      Name                        Value Type Recompute Use Index
     ----- ---------------------------- ---- --------- --- -----
     eH1_0                -2.092333e-01    1         1  ON     0
     eH1_1                -1.170512e-01    1         1  ON     1
     eH1_2                -7.956699e-02    1         1  ON     2
     eH1_3                -5.970249e-02    1         1  ON     3
     eH1_4                 1.126768e-02    1         1  ON     4
     eH1_5                 5.606922e-02    1         1  ON     5
     eH1_6                 9.105924e-02    1         1  ON     6
     eH1_7                 6.484094e-02    1         1  ON     7
     eH1_8                 7.729792e-03    1         1  ON     8
     eH1_9                 6.366627e-02    1         1  ON     9

    Radial function for element: H2
     Number of parameters: 10
     Cusp: 0.000000e+00
     Cutoff radius: 1.000000e+01

      Name                        Value Type Recompute Use Index
     ----- ---------------------------- ---- --------- --- -----
     eH2_0                -2.062559e-01    1         1  ON     0
     eH2_1                -1.130733e-01    1         1  ON     1
     eH2_2                -7.536804e-02    1         1  ON     2
     eH2_3                -5.594115e-02    1         1  ON     3
     eH2_4                 1.479366e-02    1         1  ON     4
     eH2_5                 6.000837e-02    1         1  ON     5
     eH2_6                 9.544740e-02    1         1  ON     6
     eH2_7                 7.004570e-02    1         1  ON     7
     eH2_8                 1.418636e-02    1         1  ON     8
     eH2_9                 6.507969e-02    1         1  ON     9

  Created SPOSet builder named 'LCAOBSet' of type molecularorbital
  LCAO: SoaAtomicBasisSet<MultiQuintic,0>
  AO BasisSet for C
   Angular momentum expanded in cartesian functions x^lx y^ly z^lz according to Gamess
Using log grid with default values: ri = 1.000000e-06 rf = 1.000000e+02 npts = 1001
   R(n,l,m,s) 0 0 0 0
   R(n,l,m,s) 1 0 0 0
   R(n,l,m,s) 2 1 0 0
   R(n,l,m,s) 3 1 0 0
   R(n,l,m,s) 4 2 0 0
Expanding Ylm (angular function) according to Gamess using cartesian gaussians
Adding 1 cartesian gaussian orbitals for l= 0
Adding 1 cartesian gaussian orbitals for l= 0
Adding 3 cartesian gaussian orbitals for l= 1
Adding 3 cartesian gaussian orbitals for l= 1
Adding 6 cartesian gaussian orbitals for l= 2
  Setting cutoff radius 1.270574e+01

   Maximum Angular Momentum  = 2
   Number of Radial functors = 5
   Basis size                = 14

  AO BasisSet for O
   Angular momentum expanded in cartesian functions x^lx y^ly z^lz according to Gamess
Using log grid with default values: ri = 1.000000e-06 rf = 1.000000e+02 npts = 1001
   R(n,l,m,s) 0 0 0 0
   R(n,l,m,s) 1 0 0 0
   R(n,l,m,s) 2 1 0 0
   R(n,l,m,s) 3 1 0 0
   R(n,l,m,s) 4 2 0 0
Expanding Ylm (angular function) according to Gamess using cartesian gaussians
Adding 1 cartesian gaussian orbitals for l= 0
Adding 1 cartesian gaussian orbitals for l= 0
Adding 3 cartesian gaussian orbitals for l= 1
Adding 3 cartesian gaussian orbitals for l= 1
Adding 6 cartesian gaussian orbitals for l= 2
  Setting cutoff radius 1.018591e+01

   Maximum Angular Momentum  = 2
   Number of Radial functors = 5
   Basis size                = 14

  AO BasisSet for H1
   Angular momentum expanded in cartesian functions x^lx y^ly z^lz according to Gamess
Using log grid with default values: ri = 1.000000e-06 rf = 1.000000e+02 npts = 1001
   R(n,l,m,s) 0 0 0 0
   R(n,l,m,s) 1 0 0 0
   R(n,l,m,s) 2 1 0 0
Expanding Ylm (angular function) according to Gamess using cartesian gaussians
Adding 1 cartesian gaussian orbitals for l= 0
Adding 1 cartesian gaussian orbitals for l= 0
Adding 3 cartesian gaussian orbitals for l= 1
  Setting cutoff radius 1.270574e+01

   Maximum Angular Momentum  = 1
   Number of Radial functors = 3
   Basis size                = 5

  AO BasisSet for H2
   Angular momentum expanded in cartesian functions x^lx y^ly z^lz according to Gamess
Using log grid with default values: ri = 1.000000e-06 rf = 1.000000e+02 npts = 1001
   R(n,l,m,s) 0 0 0 0
   R(n,l,m,s) 1 0 0 0
   R(n,l,m,s) 2 1 0 0
Expanding Ylm (angular function) according to Gamess using cartesian gaussians
Adding 1 cartesian gaussian orbitals for l= 0
Adding 1 cartesian gaussian orbitals for l= 0
Adding 3 cartesian gaussian orbitals for l= 1
  Setting cutoff radius 1.270574e+01

   Maximum Angular Momentum  = 1
   Number of Radial functors = 3
   Basis size                = 5

Creating SPOSet in SlaterDetBuilder::put(xmlNodePtr cur).
spo_name = spo-up
  Building SPOSet 'spo-up' with '' basis set.
Creating SPOSet in SlaterDetBuilder::put(xmlNodePtr cur).
spo_name = spo-dn
  Building SPOSet 'spo-dn' with '' basis set.
Using Bryan's algorithm for MultiSlaterDeterminant expansion. 
Creating base determinant (up) for MSD expansion. 
Creating base determinant (down) for MSD expansion. 
Found determinant list. 
Reading CI expansion.
Found 77 terms in the MSD expansion.
Norm of ci vector (sum of ci^2): 1.283305e+01
Norm of qchem ci vector (sum of qchem_ci^2): 0.000000e+00
Found 24 unique up determinants.
Found 24 unique down determinants.
Number of terms in pairs array: 12
Number of terms in pairs array: 12
CI coefficients are not optimizable. 
  FermionWF = MultiSlaterDeterminantFast
  QMCHamiltonian::addOperator Kinetic to H, physical Hamiltonian 
  QMCHamiltonian::addOperator ElecElec to H, physical Hamiltonian 
QMCHamiltonian::addOperatorType added type coulomb named ElecElec

  ECPotential builder for pseudopotential 

  Adding pseudopotential for C
   Linear grid  ri=0.000000e+00 rf=1.000000e+01 npts = 10001
    ECPComponentBuilder::buildSemiLocalAndLocal 
    Assuming Hartree unit
   Number of angular momentum channels 2
   Maximum angular momentum channel 1
   Creating a Linear Grid Rmax=1.405000e+00
  Using global grid with delta = 1.000000e-03
   Making L=1 a local potential with a radial cutoff of 9.999000e+00
    Non-local pseudopotential parameters
    Maximum angular mementum = 0
    Number of non-local channels = 1
       l(0)=0
    Cutoff radius = 1.405000e+00
    Spherical grids and weights: 
         1.0000000000e+00  0.0000000000e+00  0.0000000000e+00    8.3333333333e-02
        -1.0000000000e+00  1.2246467991e-16  0.0000000000e+00    8.3333333333e-02
         4.4721359550e-01  8.9442719100e-01  0.0000000000e+00    8.3333333333e-02
        -4.4721359550e-01  7.2360679775e-01  5.2573111212e-01    8.3333333333e-02
         4.4721359550e-01  2.7639320225e-01  8.5065080835e-01    8.3333333333e-02
        -4.4721359550e-01 -2.7639320225e-01  8.5065080835e-01    8.3333333333e-02
         4.4721359550e-01 -7.2360679775e-01  5.2573111212e-01    8.3333333333e-02
        -4.4721359550e-01 -8.9442719100e-01  1.0953573965e-16    8.3333333333e-02
         4.4721359550e-01 -7.2360679775e-01 -5.2573111212e-01    8.3333333333e-02
        -4.4721359550e-01 -2.7639320225e-01 -8.5065080835e-01    8.3333333333e-02
         4.4721359550e-01  2.7639320225e-01 -8.5065080835e-01    8.3333333333e-02
        -4.4721359550e-01  7.2360679775e-01 -5.2573111212e-01    8.3333333333e-02
    Maximum cutoff radius 1.4050000000e+00

  Adding pseudopotential for O
   Linear grid  ri=0.0000000000e+00 rf=1.0000000000e+01 npts = 10001
    ECPComponentBuilder::buildSemiLocalAndLocal 
    Assuming Hartree unit
   Number of angular momentum channels 2
   Maximum angular momentum channel 1
   Creating a Linear Grid Rmax=1.0750000000e+00
  Using global grid with delta = 1.0000000000e-03
   Making L=1 a local potential with a radial cutoff of 9.9990000000e+00
    Non-local pseudopotential parameters
    Maximum angular mementum = 0
    Number of non-local channels = 1
       l(0)=0
    Cutoff radius = 1.0750000000e+00
    Spherical grids and weights: 
         1.0000000000e+00  0.0000000000e+00  0.0000000000e+00    8.3333333333e-02
        -1.0000000000e+00  1.2246467991e-16  0.0000000000e+00    8.3333333333e-02
         4.4721359550e-01  8.9442719100e-01  0.0000000000e+00    8.3333333333e-02
        -4.4721359550e-01  7.2360679775e-01  5.2573111212e-01    8.3333333333e-02
         4.4721359550e-01  2.7639320225e-01  8.5065080835e-01    8.3333333333e-02
        -4.4721359550e-01 -2.7639320225e-01  8.5065080835e-01    8.3333333333e-02
         4.4721359550e-01 -7.2360679775e-01  5.2573111212e-01    8.3333333333e-02
        -4.4721359550e-01 -8.9442719100e-01  1.0953573965e-16    8.3333333333e-02
         4.4721359550e-01 -7.2360679775e-01 -5.2573111212e-01    8.3333333333e-02
        -4.4721359550e-01 -2.7639320225e-01 -8.5065080835e-01    8.3333333333e-02
         4.4721359550e-01  2.7639320225e-01 -8.5065080835e-01    8.3333333333e-02
        -4.4721359550e-01  7.2360679775e-01 -5.2573111212e-01    8.3333333333e-02
    Maximum cutoff radius 1.0750000000e+00

  Adding pseudopotential for H1
   Linear grid  ri=0.0000000000e+00 rf=1.0000000000e+01 npts = 10001
    ECPComponentBuilder::buildSemiLocalAndLocal 
    Assuming Hartree unit
   Number of angular momentum channels 2
   Maximum angular momentum channel 1
   Creating a Linear Grid Rmax=1.0000000000e-10
  Using global grid with delta = 1.0000000000e-03
   Making L=1 a local potential with a radial cutoff of 9.9990000000e+00
    Non-local pseudopotential parameters
    Maximum angular mementum = 0
    Number of non-local channels = 1
       l(0)=0
    Cutoff radius = 1.0000000000e-03
    Spherical grids and weights: 
         1.0000000000e+00  0.0000000000e+00  0.0000000000e+00    8.3333333333e-02
        -1.0000000000e+00  1.2246467991e-16  0.0000000000e+00    8.3333333333e-02
         4.4721359550e-01  8.9442719100e-01  0.0000000000e+00    8.3333333333e-02
        -4.4721359550e-01  7.2360679775e-01  5.2573111212e-01    8.3333333333e-02
         4.4721359550e-01  2.7639320225e-01  8.5065080835e-01    8.3333333333e-02
        -4.4721359550e-01 -2.7639320225e-01  8.5065080835e-01    8.3333333333e-02
         4.4721359550e-01 -7.2360679775e-01  5.2573111212e-01    8.3333333333e-02
        -4.4721359550e-01 -8.9442719100e-01  1.0953573965e-16    8.3333333333e-02
         4.4721359550e-01 -7.2360679775e-01 -5.2573111212e-01    8.3333333333e-02
        -4.4721359550e-01 -2.7639320225e-01 -8.5065080835e-01    8.3333333333e-02
         4.4721359550e-01  2.7639320225e-01 -8.5065080835e-01    8.3333333333e-02
        -4.4721359550e-01  7.2360679775e-01 -5.2573111212e-01    8.3333333333e-02
    Maximum cutoff radius 1.0000000000e-03

  Adding pseudopotential for H2
   Linear grid  ri=0.0000000000e+00 rf=1.0000000000e+01 npts = 10001
    ECPComponentBuilder::buildSemiLocalAndLocal 
    Assuming Hartree unit
   Number of angular momentum channels 2
   Maximum angular momentum channel 1
   Creating a Linear Grid Rmax=1.0000000000e-10
  Using global grid with delta = 1.0000000000e-03
   Making L=1 a local potential with a radial cutoff of 9.9990000000e+00
    Non-local pseudopotential parameters
    Maximum angular mementum = 0
    Number of non-local channels = 1
       l(0)=0
    Cutoff radius = 1.0000000000e-03
    Spherical grids and weights: 
         1.0000000000e+00  0.0000000000e+00  0.0000000000e+00    8.3333333333e-02
        -1.0000000000e+00  1.2246467991e-16  0.0000000000e+00    8.3333333333e-02
         4.4721359550e-01  8.9442719100e-01  0.0000000000e+00    8.3333333333e-02
        -4.4721359550e-01  7.2360679775e-01  5.2573111212e-01    8.3333333333e-02
         4.4721359550e-01  2.7639320225e-01  8.5065080835e-01    8.3333333333e-02
        -4.4721359550e-01 -2.7639320225e-01  8.5065080835e-01    8.3333333333e-02
         4.4721359550e-01 -7.2360679775e-01  5.2573111212e-01    8.3333333333e-02
        -4.4721359550e-01 -8.9442719100e-01  1.0953573965e-16    8.3333333333e-02
         4.4721359550e-01 -7.2360679775e-01 -5.2573111212e-01    8.3333333333e-02
        -4.4721359550e-01 -2.7639320225e-01 -8.5065080835e-01    8.3333333333e-02
         4.4721359550e-01  2.7639320225e-01 -8.5065080835e-01    8.3333333333e-02
        -4.4721359550e-01  7.2360679775e-01 -5.2573111212e-01    8.3333333333e-02
    Maximum cutoff radius 1.0000000000e-03
  QMCHamiltonian::addOperator LocalECP to H, physical Hamiltonian 

  Using NonLocalECP potential 
    Maximum grid on a sphere for NonLocalECPotential: 12
  QMCHamiltonian::addOperator NonLocalECP to H, physical Hamiltonian 
QMCHamiltonian::addOperatorType added type pseudo named NonLocalECP
  QMCHamiltonian::addOperator IonIon to H, physical Hamiltonian 
QMCHamiltonian::addOperatorType added type coulomb named IonIon

  QMCHamiltonian::add2WalkerProperty added
    5 to P::PropertyList 
    0 to P::Collectables 
    starting Index of the observables in P::PropertyList = 10
ParticleSetPool::randomize 
  Initialization Execution time = 4.9185e+00 secs
=========================================================
 Summary of QMC systems 
=========================================================
ParticleSetPool has: 

  ParticleSet 'e' contains 12 particles :  u(6) d(6)

    u -1.8061669018e+00  2.7837752017e-01 -8.9374600273e-01
    u  6.2204767277e-01 -3.1767951129e-01 -1.6068917470e+00
    u  2.7844543642e-02 -4.6711695757e-01  1.3769739340e+00
    u  5.3613352983e-01 -1.0346031641e-01  1.1931174682e+00
    u  6.6915801034e-01  1.1573235719e+00  1.2719505344e+00
    u  1.8470266426e-02  1.4117662795e+00 -1.6695285925e+00
    d -9.6293909260e-01  1.0337145637e+00 -8.9962839053e-01
    d  1.0744417758e+00  1.1605479134e+00 -1.8930392030e+00
    d  1.2380477230e+00  4.9285421082e-01  8.7082227944e-01
    d  8.1730014770e-01 -3.7289888410e-01  2.8378529985e+00
    (... and 2 more particle positions ...)

  Distance table for similar particles (A-A):
    source/target: e
    Using structure-of-arrays (SoA) data layout
    Distance computations use open boundary conditions in 3D.

  Distance table for dissimilar particles (A-B):
    source: ion0  target: e
    Using structure-of-arrays (SoA) data layout
    Distance computations use open boundary conditions in 3D.


  ParticleSet 'ion0' contains 4 particles :  C(1) O(1) H1(1) H2(1)

    C  0.0000000000e+00  0.0000000000e+00 -1.1394765782e+00
    O  0.0000000000e+00  0.0000000000e+00  1.1440287480e+00
    H1  0.0000000000e+00  1.7662761033e+00 -2.2339863698e+00
    H2  0.0000000000e+00 -1.7662761033e+00 -2.2339863698e+00

  Distance table for similar particles (A-A):
    source/target: ion0
    Using structure-of-arrays (SoA) data layout
    Distance computations use open boundary conditions in 3D.


  Hamiltonian h0
  Kinetic         Kinetic energy
  ElecElec        CoulombAA source/target e

  LocalECP        LocalECPotential: ion0
  NonLocalECP     NonLocalECPotential: ion0
  IonIon          CoulombAA source/target ion0


Loop execution max-interations = 40
Inside LM engine constructor, num_params is: 0 and _total_num_params is: 0

=========================================================
  Start QMCFixedSampleLinearOptimize
  File Root FORM.s000 append = no 
=========================================================
  Skip QMCDriver::putQMCInfo 
  Resetting Properties of the walkers 1 x 15
  Adding 1 walkers to 0 existing sets
  Total number of walkers: 1.2800000000e+02
  Total weight: 1.2800000000e+02

=========================================================
  Start VMC
  File Root FORM.s000 append = no 
=========================================================
Resetting walkers
  Using the current 1 walkers.
  Total number of walkers: 1.2800000000e+02
  Total weight: 1.2800000000e+02
  Resetting Properties of the walkers 1 x 15

<vmc function="put">
  qmc_counter=0  my_counter=0
  time step      = 5.0000000000e-02
  blocks         = 125
  steps          = 125
  substeps       = 10
  current        = 0
  target samples = 2.0000000000e+06
  walkers/mpi    = 1

  stepsbetweensamples = 1
<parameter name="blocks" condition="int">125</parameter>
<parameter name="blocks_between_recompute" condition="int">0</parameter>
<parameter name="check_properties" condition="int">100</parameter>
<parameter name="checkproperties" condition="int">100</parameter>
<parameter name="current" condition="int">0</parameter>
<parameter name="dmcwalkersperthread" condition="real">1.5625000000e+04</parameter>
<parameter name="fermionicweight" condition="real">1.0000000000e-04</parameter>
<parameter name="jastrowweight" condition="real">0.0000000000e+00</parameter>
<parameter name="maxcpusecs" condition="real">3.6000000000e+05</parameter>
<parameter name="mg_beta" condition="real">0.0000000000e+00</parameter>
<parameter name="mg_gamma" condition="real">0.0000000000e+00</parameter>
<parameter name="modifiedguiding" condition="string">ParameterDerivativeAdjusted</parameter>
<parameter name="orboptweight" condition="real">0.0000000000e+00</parameter>
<parameter name="record_configs" condition="int">0</parameter>
<parameter name="record_walkers" condition="int">1</parameter>
<parameter name="recordconfigs" condition="int">0</parameter>
<parameter name="recordwalkers" condition="int">1</parameter>
<parameter name="rewind" condition="int">0</parameter>
<parameter name="samples" condition="real">2.0000000000e+06</parameter>
<parameter name="samplesperthread" condition="real">1.5625000000e+04</parameter>
<parameter name="steps" condition="int">125</parameter>
<parameter name="stepsbetweensamples" condition="int">1</parameter>
<parameter name="store_configs" condition="int">0</parameter>
<parameter name="storeconfigs" condition="int">0</parameter>
<parameter name="sub_steps" condition="int">10</parameter>
<parameter name="substeps" condition="int">10</parameter>
<parameter name="tau" condition="au">5.0000000000e-02</parameter>
<parameter name="time_step" condition="au">5.0000000000e-02</parameter>
<parameter name="timestep" condition="au">5.0000000000e-02</parameter>
<parameter name="use_drift" condition="string">no</parameter>
<parameter name="usedrift" condition="string">no</parameter>
<parameter name="walkers" condition="int">1</parameter>
<parameter name="warmup_steps" condition="int">1000</parameter>
<parameter name="warmupsteps" condition="int">1000</parameter>
  DumpConfig==false Nothing (configurations, state) will be saved.
  Walker Samples are dumped every 1 steps.
</vmc>
  Set drift_modifier UNR parameter a = 1.0000000000e+00
  EstimatorManagerBase::add replace LocalEnergy estimator.
 Using QMCCostFunction::QMCCostFunction
   Going to include the derivatives of NonLocalECP
 Using Default Cost Function: Cost = <|E-E_ff|^2>
  Set drift_modifier UNR parameter a = 1.0000000000e+00
  EstimatorManagerBase::add replace LocalEnergy estimator.
Double check: filter_param_: 0 and ratio_threshold_: 0.0000000000e+00
Allocating full size _hmat_temp and _smat_temp
Inside LM engine's get_param, num_params is: 60
Now doing initialize, nblock: 1, nkeps: 1
Start of engine's reset
Before block part of reset
end of engine's reset
entering engine_start function
<optimization-report>
<vmc stage="main" blocks="125">
  Initial partition of walkers 0 1 
Using ParameterDeriv Adjusted Guiding Function

  Using Particle by Particle moves
  Walker moves without drift
  Total Sample Size   =2000000
  Walker distribution on root = 0 1 
  Using Locality Approximation
  Anonymous Buffer size per walker : 29288 Bytes.
MEMORY increase 0 MB VMC::resetRun
====================================================
  SimpleFixedNodeBranch::finalize after a VMC block
    QMC counter        = 0
    time step          = 0.05
    reference energy   = -22.6928
    reference variance = 0.418481
====================================================
  Execution time = 8.7945e+01
</vmc>
<opt stage="setup">
  <log>
     Reading configurations from h5FileRoot FORM.s000
  QMCCostFunction is created with 1 threads.
  Using Nonlocal PP in Opt: NonLocalECP
   Number of samples loaded to each thread : 15625 
Value of Filter Bool: false before_first_block_sample: true onDescentStep: false
Before engine_checkConfigurations
Double check filter inside engine_checkConfig: false
 w_tot 1.5625e+04
  VMC Eavg = -2.2669e+01
  VMC Evar = 5.1682e-01
  Total weights = 2.000000000e+06
Before sample_finish
calling setComputed function
After engine_checkConfig
  Execution time = 2.9926e+01
  </log>
</opt>
<opt stage="main" walkers="15625">
  <log>
Restored printouts from recurive_blocking in energy_target_accu

Crude block analysis of variance gives:     variance =       0.516963769635
                                         uncertainty =       0.005663204455

Now for a blocking analysis of energy uncertainty:

energy and target function accumulation statistics:


Restored printouts from recurive_blocking in energy_target_accu

Crude block analysis of variance gives:     variance =       0.516963769635
                                         uncertainty =       0.005663204455

Now for a blocking analysis of energy uncertainty:

  error estimate for blocks of size 2^( 1) =       0.000508339320
  error estimate for blocks of size 2^( 2) =       0.000526506895
  error estimate for blocks of size 2^( 3) =       0.000542518345
  error estimate for blocks of size 2^( 4) =       0.000553635192
  error estimate for blocks of size 2^( 5) =       0.000561056678
  error estimate for blocks of size 2^( 6) =       0.000565516153
  error estimate for blocks of size 2^( 7) =       0.000568108583

      target function =                  N/A
              le_mean =     -22.669304142950
             les_mean =     514.414167796195
             stat err =       0.000562079152
             autocorr =       1.222608880977
              std dev =       0.718900360977
             le_variance =       0.516817729013


*************************************************************************************************
Solving the linear method equations on the initial sample with initial energy-2.266930414295e+01 
*************************************************************************************************


*********************************************************
Solving the linear method equations on the initial sample
*********************************************************

Inside this version of call_engine, dep_ptr->n_tot(): 60
Check correct_vf_var_size: 183, current size: 0
Inside version of engine_update_build_matrix that takes matrices hh and ss as input
solving harmonic davidson linear method for identity shift 2.5000e-01, overlap shift 2.5000e+00 and omega 0.0000e+00

iteration solving starts here(engine) 


davidson iteration    0:   krylov dim =   1   energy =     -22.669304142950       residual = 1.15e-05           smallest_sin_value = 1.00e+00
davidson iteration    1:   krylov dim =   2   energy =     -22.669305651724       residual = 3.19e-06           smallest_sin_value = 1.00e+00
davidson iteration    2:   krylov dim =   3   energy =     -22.669306211784       residual = 1.64e-06           smallest_sin_value = 1.00e+00
davidson iteration    3:   krylov dim =   4   energy =     -22.669307767502       residual = 1.16e-06           smallest_sin_value = 1.00e+00
davidson iteration    4:   krylov dim =   5   energy =     -22.669307452225       residual = 1.06e-06           smallest_sin_value = 1.00e+00
davidson iteration    5:   krylov dim =   6   energy =     -22.669308281932       residual = 6.78e-07           smallest_sin_value = 1.00e+00
davidson iteration    6:   krylov dim =   7   energy =     -22.669308513193       residual = 3.75e-07           smallest_sin_value = 1.00e+00
davidson iteration    7:   krylov dim =   8   energy =     -22.669308616342       residual = 2.21e-07           smallest_sin_value = 1.00e+00
davidson iteration    8:   krylov dim =   9   energy =     -22.669308712702       residual = 1.37e-07           smallest_sin_value = 1.00e+00
davidson iteration    9:   krylov dim =  10   energy =     -22.669308603824       residual = 6.17e-08           smallest_sin_value = 1.00e+00
davidson iteration   10:   krylov dim =  11   energy =     -22.669308983251       residual = 5.21e-08           smallest_sin_value = 1.00e+00
davidson iteration   11:   krylov dim =  12   energy =     -22.669308814766       residual = 2.35e-08           smallest_sin_value = 1.00e+00
davidson iteration   12:   krylov dim =  13   energy =     -22.669308773082       residual = 4.91e-09           smallest_sin_value = 1.00e+00
davidson solver converged in         12 iterations

On rank 0, check n_tot: 61 and evec_eigen.size(): 61
The largest weight on the derivative vector for shift 2.5000e-01 is 4.815945e-04

solving harmonic davidson linear method for identity shift 1.0000e+00, overlap shift 1.0000e+01 and omega 0.0000e+00

iteration solving starts here(engine) 


davidson iteration    0:   krylov dim =   1   energy =     -22.669304142950       residual = 1.15e-05           smallest_sin_value = 1.00e+00
davidson iteration    1:   krylov dim =   2   energy =     -22.669304649885       residual = 3.41e-06           smallest_sin_value = 1.00e+00
davidson iteration    2:   krylov dim =   3   energy =     -22.669304916378       residual = 1.67e-06           smallest_sin_value = 1.00e+00
davidson iteration    3:   krylov dim =   4   energy =     -22.669305626875       residual = 9.61e-07           smallest_sin_value = 1.00e+00
davidson iteration    4:   krylov dim =   5   energy =     -22.669305530585       residual = 1.08e-06           smallest_sin_value = 1.00e+00
davidson iteration    5:   krylov dim =   6   energy =     -22.669305815743       residual = 4.88e-07           smallest_sin_value = 1.00e+00
davidson iteration    6:   krylov dim =   7   energy =     -22.669305940575       residual = 1.73e-07           smallest_sin_value = 1.00e+00
davidson iteration    7:   krylov dim =   8   energy =     -22.669305883753       residual = 6.11e-08           smallest_sin_value = 1.00e+00
davidson iteration    8:   krylov dim =   9   energy =     -22.669305937885       residual = 3.40e-08           smallest_sin_value = 1.00e+00
davidson iteration    9:   krylov dim =  10   energy =     -22.669305913746       residual = 1.04e-08           smallest_sin_value = 1.00e+00
davidson iteration   10:   krylov dim =  11   energy =     -22.669305954240       residual = 7.17e-09           smallest_sin_value = 1.00e+00
davidson solver converged in         10 iterations

On rank 0, check n_tot: 61 and evec_eigen.size(): 61
The largest weight on the derivative vector for shift 1.0000e+00 is 1.347336e-04

solving harmonic davidson linear method for identity shift 4.0000e+00, overlap shift 4.0000e+01 and omega 0.0000e+00

iteration solving starts here(engine) 


davidson iteration    0:   krylov dim =   1   energy =     -22.669304142950       residual = 1.15e-05           smallest_sin_value = 1.00e+00
davidson iteration    1:   krylov dim =   2   energy =     -22.669304281607       residual = 3.50e-06           smallest_sin_value = 1.00e+00
davidson iteration    2:   krylov dim =   3   energy =     -22.669304367197       residual = 1.73e-06           smallest_sin_value = 1.00e+00
davidson iteration    3:   krylov dim =   4   energy =     -22.669304588703       residual = 8.95e-07           smallest_sin_value = 1.00e+00
davidson iteration    4:   krylov dim =   5   energy =     -22.669304569582       residual = 1.08e-06           smallest_sin_value = 1.00e+00
davidson iteration    5:   krylov dim =   6   energy =     -22.669304654242       residual = 4.27e-07           smallest_sin_value = 1.00e+00
davidson iteration    6:   krylov dim =   7   energy =     -22.669304699701       residual = 1.26e-07           smallest_sin_value = 1.00e+00
davidson iteration    7:   krylov dim =   8   energy =     -22.669304668468       residual = 3.77e-08           smallest_sin_value = 1.00e+00
davidson iteration    8:   krylov dim =   9   energy =     -22.669304685686       residual = 8.64e-09           smallest_sin_value = 1.00e+00
davidson solver converged in          8 iterations

On rank 0, check n_tot: 61 and evec_eigen.size(): 61
The largest weight on the derivative vector for shift 4.0000e+00 is 3.619828e-05

About to broadcast update vector

Printing all timers used during this execution:
  eigen solver                               0.008187 seconds

After print_timers
After EngineObj->wfn_update_compute(), N is: 61 and numParams is: 60

************************************************************
Updating the guiding function with the middle shift's update
************************************************************

  Execution time = 1.1788e+02
  </log>
  <optVariables href="FORM.s000.opt.xml">
uu_0  2.959917e-01                 1 1 ON  0
uu_1  1.202966e-01                 1 1 ON  1
uu_2  6.588952e-03                 1 1 ON  2
uu_3  -6.080871e-02                1 1 ON  3
uu_4  -1.014624e-01                1 1 ON  4
uu_5  -1.275181e-01                1 1 ON  5
uu_6  -1.430104e-01                1 1 ON  6
uu_7  -1.470519e-01                1 1 ON  7
uu_8  -1.393631e-01                1 1 ON  8
uu_9  -1.148824e-01                1 1 ON  9
ud_0  4.126677e-01                 1 1 ON  10
ud_1  1.304324e-01                 1 1 ON  11
ud_2  -1.629092e-02                1 1 ON  12
ud_3  -9.443144e-02                1 1 ON  13
ud_4  -1.373494e-01                1 1 ON  14
ud_5  -1.624376e-01                1 1 ON  15
ud_6  -1.757577e-01                1 1 ON  16
ud_7  -1.771378e-01                1 1 ON  17
ud_8  -1.651598e-01                1 1 ON  18
ud_9  -1.362449e-01                1 1 ON  19
eC_0  -5.841670e-01                1 1 ON  20
eC_1  -4.321673e-01                1 1 ON  21
eC_2  -1.799987e-01                1 1 ON  22
eC_3  -2.514107e-02                1 1 ON  23
eC_4  5.723908e-02                 1 1 ON  24
eC_5  1.601683e-01                 1 1 ON  25
eC_6  2.597568e-01                 1 1 ON  26
eC_7  3.749206e-01                 1 1 ON  27
eC_8  2.807430e-01                 1 1 ON  28
eC_9  8.164151e-02                 1 1 ON  29
eO_0  -1.186031e+00                1 1 ON  30
eO_1  -8.085340e-01                1 1 ON  31
eO_2  -3.433823e-01                1 1 ON  32
eO_3  -1.555834e-03                1 1 ON  33
eO_4  2.241051e-01                 1 1 ON  34
eO_5  3.899690e-01                 1 1 ON  35
eO_6  4.346613e-01                 1 1 ON  36
eO_7  4.310415e-01                 1 1 ON  37
eO_8  4.088582e-01                 1 1 ON  38
eO_9  3.111288e-01                 1 1 ON  39
eH1_0 -2.093468e-01                1 1 ON  40
eH1_1 -1.170489e-01                1 1 ON  41
eH1_2 -7.950882e-02                1 1 ON  42
eH1_3 -5.978460e-02                1 1 ON  43
eH1_4 1.123148e-02                 1 1 ON  44
eH1_5 5.602686e-02                 1 1 ON  45
eH1_6 9.114163e-02                 1 1 ON  46
eH1_7 6.484092e-02                 1 1 ON  47
eH1_8 7.849327e-03                 1 1 ON  48
eH1_9 6.362326e-02                 1 1 ON  49
eH2_0 -2.062550e-01                1 1 ON  50
eH2_1 -1.130894e-01                1 1 ON  51
eH2_2 -7.539811e-02                1 1 ON  52
eH2_3 -5.591011e-02                1 1 ON  53
eH2_4 1.476195e-02                 1 1 ON  54
eH2_5 5.997444e-02                 1 1 ON  55
eH2_6 9.544135e-02                 1 1 ON  56
eH2_7 7.004278e-02                 1 1 ON  57
eH2_8 1.425602e-02                 1 1 ON  58
eH2_9 6.505343e-02                 1 1 ON  59
  </optVariables>
eC
Array
eH1
Array
eH2
Array
eO
Array
ud
Array
uu
Array
   Restore the number of walkers to 1, removing 0 walkers.
</opt>
</optimization-report>

*************************************************************
Generating a new sample based on the updated guiding function
*************************************************************

<optimization-report>
<vmc stage="main" blocks="125">
  Cannot make clones again. Use existing 1 clones
  Initial partition of walkers 0 1 
  Using Particle by Particle moves
  Walker moves without drift
  Total Sample Size   =2000000
  Walker distribution on root = 0 1 
  Using Locality Approximation
====================================================
  SimpleFixedNodeBranch::finalize after a VMC block
    QMC counter        = 0
    time step          = 0.05
    reference energy   = -22.6538
    reference variance = 0.464237
====================================================
  Execution time = 8.7012e+01
</vmc>
<opt stage="setup">
  <log>
   Reading configurations from h5FileRoot FORM.s000
  Using Nonlocal PP in Opt: NonLocalECP
   Number of samples loaded to each thread : 15625 
  VMC Eavg = -2.2671e+01
  VMC Evar = 5.1134e-01
  Total weights = 2.0000e+06
  Execution time = 7.1040e+00
  </log>
</opt>
<opt stage="main" walkers="15625">
  <log>

******************************************************************
Comparing different shifts' cost function values on updated sample
******************************************************************

Start of engine's reset
Before block part of reset
end of engine's reset
Restored printouts from recurive_blocking in energy_target_accu

Crude block analysis of variance gives:     variance =       0.511365078206
                                         uncertainty =       0.004142278667

Now for a blocking analysis of energy uncertainty:

energy and target function accumulation statistics:


Restored printouts from recurive_blocking in energy_target_accu

Crude block analysis of variance gives:     variance =       0.511365078206
                                         uncertainty =       0.004142278667

Now for a blocking analysis of energy uncertainty:

  error estimate for blocks of size 2^( 1) =       0.000505615485
  error estimate for blocks of size 2^( 2) =       0.000523573362
  error estimate for blocks of size 2^( 3) =       0.000539518173
  error estimate for blocks of size 2^( 4) =       0.000551483777
  error estimate for blocks of size 2^( 5) =       0.000558418952
  error estimate for blocks of size 2^( 6) =       0.000560896892
  error estimate for blocks of size 2^( 7) =       0.000563808199

      target function =                  N/A
              le_mean =     -22.670777101797
             les_mean =     514.475428181871
             stat err =       0.000558651955
             autocorr =       1.220792669410
              std dev =       0.715048276815
             le_variance =       0.511294038176

Start of engine's reset
Before block part of reset
end of engine's reset
Restored printouts from recurive_blocking in energy_target_accu

Crude block analysis of variance gives:     variance =       0.511486659491
                                         uncertainty =       0.004143846515

Now for a blocking analysis of energy uncertainty:

energy and target function accumulation statistics:


Restored printouts from recurive_blocking in energy_target_accu

Crude block analysis of variance gives:     variance =       0.511486659491
                                         uncertainty =       0.004143846515

Now for a blocking analysis of energy uncertainty:

  error estimate for blocks of size 2^( 1) =       0.000505675570
  error estimate for blocks of size 2^( 2) =       0.000523631436
  error estimate for blocks of size 2^( 3) =       0.000539574025
  error estimate for blocks of size 2^( 4) =       0.000551534354
  error estimate for blocks of size 2^( 5) =       0.000558467858
  error estimate for blocks of size 2^( 6) =       0.000560946295
  error estimate for blocks of size 2^( 7) =       0.000563854875

      target function =                  N/A
              le_mean =     -22.670778007124
             les_mean =     514.475590756175
             stat err =       0.000558700846
             autocorr =       1.220716212179
              std dev =       0.715133248825
             le_variance =       0.511415563575

Start of engine's reset
Before block part of reset
end of engine's reset
Restored printouts from recurive_blocking in energy_target_accu

Crude block analysis of variance gives:     variance =       0.511459898519
                                         uncertainty =       0.004143404822

Now for a blocking analysis of energy uncertainty:

energy and target function accumulation statistics:


Restored printouts from recurive_blocking in energy_target_accu

Crude block analysis of variance gives:     variance =       0.511459898519
                                         uncertainty =       0.004143404822

Now for a blocking analysis of energy uncertainty:

  error estimate for blocks of size 2^( 1) =       0.000505662341
  error estimate for blocks of size 2^( 2) =       0.000523618764
  error estimate for blocks of size 2^( 3) =       0.000539562260
  error estimate for blocks of size 2^( 4) =       0.000551523939
  error estimate for blocks of size 2^( 5) =       0.000558458865
  error estimate for blocks of size 2^( 6) =       0.000560938020
  error estimate for blocks of size 2^( 7) =       0.000563848135

      target function =                  N/A
              le_mean =     -22.670777904547
             les_mean =     514.475559347048
             stat err =       0.000558692240
             autocorr =       1.220742478474
              std dev =       0.715114540087
             le_variance =       0.511388805443

Start of engine's reset
Before block part of reset
end of engine's reset
Restored printouts from recurive_blocking in energy_target_accu

Crude block analysis of variance gives:     variance =       0.511376412907
                                         uncertainty =       0.004142459892

Now for a blocking analysis of energy uncertainty:

energy and target function accumulation statistics:


Restored printouts from recurive_blocking in energy_target_accu

Crude block analysis of variance gives:     variance =       0.511376412907
                                         uncertainty =       0.004142459892

Now for a blocking analysis of energy uncertainty:

  error estimate for blocks of size 2^( 1) =       0.000505621086
  error estimate for blocks of size 2^( 2) =       0.000523578837
  error estimate for blocks of size 2^( 3) =       0.000539523553
  error estimate for blocks of size 2^( 4) =       0.000551488643
  error estimate for blocks of size 2^( 5) =       0.000558423856
  error estimate for blocks of size 2^( 6) =       0.000560902078
  error estimate for blocks of size 2^( 7) =       0.000563813302

      target function =                  N/A
              le_mean =     -22.670777165535
             les_mean =     514.475442398575
             stat err =       0.000558656969
             autocorr =       1.220787541111
              std dev =       0.715056196997
             le_variance =       0.511305364864


        shift_i        shift_s       max param change    cost function value
   ------------   ------------   --------------------   --------------------
            N/A            N/A                    N/A       -22.670777101797        initial
     2.5000e-01     2.5000e+00             4.8159e-04       -22.670778007124  <--
     1.0000e+00     1.0000e+01             1.3473e-04       -22.670777904547
     4.0000e+00     4.0000e+01             3.6198e-05       -22.670777165535

*****************************************************************************
Applying the update for shift_i =   2.5000e-01     and shift_s =   2.5000e+00
*****************************************************************************

  Execution time = 1.2253e+02
  </log>
  <optVariables href="FORM.s000.opt.xml">
 uu_0                 2.961537e-01 1 1  ON 0
 uu_1                 1.202908e-01 1 1  ON 1
 uu_2                 6.646705e-03 1 1  ON 2
 uu_3                -6.076154e-02 1 1  ON 3
 uu_4                -1.014089e-01 1 1  ON 4
 uu_5                -1.275830e-01 1 1  ON 5
 uu_6                -1.430585e-01 1 1  ON 6
 uu_7                -1.471933e-01 1 1  ON 7
 uu_8                -1.392473e-01 1 1  ON 8
 uu_9                -1.147715e-01 1 1  ON 9
 ud_0                 4.128248e-01 1 1  ON 10
 ud_1                 1.305796e-01 1 1  ON 11
 ud_2                -1.615176e-02 1 1  ON 12
 ud_3                -9.432969e-02 1 1  ON 13
 ud_4                -1.372633e-01 1 1  ON 14
 ud_5                -1.624072e-01 1 1  ON 15
 ud_6                -1.757961e-01 1 1  ON 16
 ud_7                -1.773382e-01 1 1  ON 17
 ud_8                -1.651039e-01 1 1  ON 18
 ud_9                -1.361137e-01 1 1  ON 19
 eC_0                -5.844482e-01 1 1  ON 20
 eC_1                -4.323386e-01 1 1  ON 21
 eC_2                -1.801978e-01 1 1  ON 22
 eC_3                -2.525899e-02 1 1  ON 23
 eC_4                 5.717757e-02 1 1  ON 24
 eC_5                 1.604344e-01 1 1  ON 25
 eC_6                 2.601097e-01 1 1  ON 26
 eC_7                 3.747587e-01 1 1  ON 27
 eC_8                 2.809755e-01 1 1  ON 28
 eC_9                 8.177628e-02 1 1  ON 29
 eO_0                -1.186344e+00 1 1  ON 30
 eO_1                -8.086480e-01 1 1  ON 31
 eO_2                -3.437099e-01 1 1  ON 32
 eO_3                -1.866425e-03 1 1  ON 33
 eO_4                 2.241305e-01 1 1  ON 34
 eO_5                 3.900791e-01 1 1  ON 35
 eO_6                 4.349352e-01 1 1  ON 36
 eO_7                 4.313918e-01 1 1  ON 37
 eO_8                 4.087642e-01 1 1  ON 38
 eO_9                 3.113295e-01 1 1  ON 39
eH1_0                -2.096233e-01 1 1  ON 40
eH1_1                -1.170488e-01 1 1  ON 41
eH1_2                -7.945405e-02 1 1  ON 42
eH1_3                -5.993834e-02 1 1  ON 43
eH1_4                 1.112178e-02 1 1  ON 44
eH1_5                 5.595021e-02 1 1  ON 45
eH1_6                 9.130741e-02 1 1  ON 46
eH1_7                 6.483710e-02 1 1  ON 47
eH1_8                 8.211386e-03 1 1  ON 48
eH1_9                 6.349481e-02 1 1  ON 49
eH2_0                -2.062672e-01 1 1  ON 50
eH2_1                -1.131219e-01 1 1  ON 51
eH2_2                -7.545192e-02 1 1  ON 52
eH2_3                -5.589680e-02 1 1  ON 53
eH2_4                 1.468906e-02 1 1  ON 54
eH2_5                 5.990810e-02 1 1  ON 55
eH2_6                 9.543210e-02 1 1  ON 56
eH2_7                 7.000993e-02 1 1  ON 57
eH2_8                 1.446274e-02 1 1  ON 58
eH2_9                 6.497531e-02 1 1  ON 59
  </optVariables>
eC
Array
eH1
Array
eH2
Array
eO
Array
ud
Array
uu
Array
   Restore the number of walkers to 1, removing 0 walkers.
</opt>
</optimization-report>
  QMC Execution time = 2.4103e+02 secs
  Reusing QMCFixedSampleLinearOptimize
 Using QMCCostFunction::QMCCostFunction
   Going to include the derivatives of NonLocalECP
 Using Default Cost Function: Cost = <|E-E_ff|^2>

=========================================================
  Start QMCFixedSampleLinearOptimize
  File Root FORM.s001 append = no 
=========================================================
  Skip QMCDriver::putQMCInfo 
  Resetting Properties of the walkers 1 x 15

=========================================================
  Start VMC
  File Root FORM.s001 append = no 
=========================================================
Using existing walkers 
  Resetting Properties of the walkers 1 x 15

<vmc function="put">
  qmc_counter=1  my_counter=0
  time step      = 5.0000e-02
  blocks         = 125
  steps          = 125
  substeps       = 10
  current        = 0
  target samples = 2.0000e+06
  walkers/mpi    = 1

  stepsbetweensamples = 1
<parameter name="blocks" condition="int">125</parameter>
<parameter name="blocks_between_recompute" condition="int">0</parameter>
<parameter name="check_properties" condition="int">100</parameter>
<parameter name="checkproperties" condition="int">100</parameter>
<parameter name="current" condition="int">0</parameter>
<parameter name="dmcwalkersperthread" condition="real">1.5625e+04</parameter>
<parameter name="fermionicweight" condition="real">1.0000e-04</parameter>
<parameter name="jastrowweight" condition="real">0.0000e+00</parameter>
<parameter name="maxcpusecs" condition="real">3.6000e+05</parameter>
<parameter name="mg_beta" condition="real">0.0000e+00</parameter>
<parameter name="mg_gamma" condition="real">0.0000e+00</parameter>
<parameter name="modifiedguiding" condition="string">ParameterDerivativeAdjusted</parameter>
<parameter name="orboptweight" condition="real">0.0000e+00</parameter>
<parameter name="record_configs" condition="int">0</parameter>
<parameter name="record_walkers" condition="int">1</parameter>
<parameter name="recordconfigs" condition="int">0</parameter>
<parameter name="recordwalkers" condition="int">1</parameter>
<parameter name="rewind" condition="int">0</parameter>
<parameter name="samples" condition="real">2.0000e+06</parameter>
<parameter name="samplesperthread" condition="real">1.5625e+04</parameter>
<parameter name="steps" condition="int">125</parameter>
<parameter name="stepsbetweensamples" condition="int">1</parameter>
<parameter name="store_configs" condition="int">0</parameter>
<parameter name="storeconfigs" condition="int">0</parameter>
<parameter name="sub_steps" condition="int">10</parameter>
<parameter name="substeps" condition="int">10</parameter>
<parameter name="tau" condition="au">5.0000e-02</parameter>
<parameter name="time_step" condition="au">5.0000e-02</parameter>
<parameter name="timestep" condition="au">5.0000e-02</parameter>
<parameter name="use_drift" condition="string">no</parameter>
<parameter name="usedrift" condition="string">no</parameter>
<parameter name="walkers" condition="int">1</parameter>
<parameter name="warmup_steps" condition="int">1000</parameter>
<parameter name="warmupsteps" condition="int">1000</parameter>
  DumpConfig==false Nothing (configurations, state) will be saved.
  Walker Samples are dumped every 1 steps.
</vmc>
    Restarting, cummulative properties:
      energy     = -2.2673e+01
      variance   = 0.0000e+00
      r2accepted = 1.0000e-10
      r2proposed = 1.0000e-10
  Set drift_modifier UNR parameter a = 1.0000e+00
  EstimatorManagerBase::add replace LocalEnergy estimator.
 Using QMCCostFunction::QMCCostFunction
   Going to include the derivatives of NonLocalECP
 Using Default Cost Function: Cost = <|E-E_ff|^2>
  Set drift_modifier UNR parameter a = 1.0000e+00
  EstimatorManagerBase::add replace LocalEnergy estimator.
  EstimatorManagerBase::add replace LocalEnergy estimator.
Double check: filter_param_: false and ratio_threshold_: 0.0000e+00
Now doing initialize, nblock: 1, nkeps: 1
Start of engine's reset
Before block part of reset
end of engine's reset
entering engine_start function
<optimization-report>
<vmc stage="main" blocks="125">
  Cannot make clones again. Use existing 1 clones
  Initial partition of walkers 0 1 
Using ParameterDeriv Adjusted Guiding Function

  Using Particle by Particle moves
  Walker moves without drift
  Total Sample Size   =2000000
  Walker distribution on root = 0 1 
  Using Locality Approximation
  Anonymous Buffer size per walker : 29288 Bytes.
MEMORY increase 0 MB VMC::resetRun
====================================================
  SimpleFixedNodeBranch::finalize after a VMC block
    QMC counter        = 1
    time step          = 0.05
    reference energy   = -22.6188
    reference variance = 0.595155
====================================================
  Execution time = 8.6816e+01
</vmc>
<opt stage="setup">
  <log>
     Reading configurations from h5FileRoot FORM.s001
  QMCCostFunction is created with 1 threads.
  Using Nonlocal PP in Opt: NonLocalECP
   Number of samples loaded to each thread : 15625 
Value of Filter Bool: false before_first_block_sample: true onDescentStep: false
Before engine_checkConfigurations
Double check filter inside engine_checkConfig: false
 w_tot 1.5625e+04
  VMC Eavg = -2.2670e+01
  VMC Evar = 5.0592e-01
  Total weights = 2.000000000e+06
Before sample_finish
calling setComputed function
After engine_checkConfig
  Execution time = 2.9712e+01
  </log>
</opt>
<opt stage="main" walkers="15625">
  <log>
Restored printouts from recurive_blocking in energy_target_accu

Crude block analysis of variance gives:     variance =       0.505837082433
                                         uncertainty =       0.002984255171

Now for a blocking analysis of energy uncertainty:

energy and target function accumulation statistics:


Restored printouts from recurive_blocking in energy_target_accu

Crude block analysis of variance gives:     variance =       0.505837082433
                                         uncertainty =       0.002984255171

Now for a blocking analysis of energy uncertainty:

  error estimate for blocks of size 2^( 1) =       0.000502952714
  error estimate for blocks of size 2^( 2) =       0.000520598637
  error estimate for blocks of size 2^( 3) =       0.000536544604
  error estimate for blocks of size 2^( 4) =       0.000548042649
  error estimate for blocks of size 2^( 5) =       0.000554167720
  error estimate for blocks of size 2^( 6) =       0.000556280631
  error estimate for blocks of size 2^( 7) =       0.000556343219

      target function =                  N/A
              le_mean =     -22.669738952182
             les_mean =     514.422986772946
             stat err =       0.000553708555
             autocorr =       1.212015444145
              std dev =       0.711282549924
             le_variance =       0.505922865827


*************************************************************************************************
Solving the linear method equations on the initial sample with initial energy -2.266973895218e+01
*************************************************************************************************


*********************************************************
Solving the linear method equations on the initial sample
*********************************************************

Inside this version of call_engine, dep_ptr->n_tot(): 60
Check correct_vf_var_size: 183, current size: 0
Inside version of engine_update_build_matrix that takes matrices hh and ss as input
solving harmonic davidson linear method for identity shift 6.2500e-02, overlap shift 6.2500e-01 and omega 0.0000e+00

iteration solving starts here(engine) 


davidson iteration    0:   krylov dim =   1   energy =     -22.669738952182       residual = 9.48e-06           smallest_sin_value = 1.00e+00
davidson iteration    1:   krylov dim =   2   energy =     -22.669741030151       residual = 4.08e-06           smallest_sin_value = 1.00e+00
davidson iteration    2:   krylov dim =   3   energy =     -22.669741816360       residual = 3.61e-06           smallest_sin_value = 1.00e+00
davidson iteration    3:   krylov dim =   4   energy =     -22.669743214395       residual = 2.06e-06           smallest_sin_value = 1.00e+00
davidson iteration    4:   krylov dim =   5   energy =     -22.669742866978       residual = 1.44e-06           smallest_sin_value = 1.00e+00
davidson iteration    5:   krylov dim =   6   energy =     -22.669743471653       residual = 7.25e-07           smallest_sin_value = 1.00e+00
davidson iteration    6:   krylov dim =   7   energy =     -22.669743224205       residual = 9.86e-07           smallest_sin_value = 1.00e+00
davidson iteration    7:   krylov dim =   8   energy =     -22.669743094613       residual = 5.21e-07           smallest_sin_value = 1.00e+00
davidson iteration    8:   krylov dim =   9   energy =     -22.669742768771       residual = 5.62e-07           smallest_sin_value = 1.00e+00
davidson iteration    9:   krylov dim =  10   energy =     -22.669743589069       residual = 4.22e-07           smallest_sin_value = 1.00e+00
davidson iteration   10:   krylov dim =  11   energy =     -22.669744127441       residual = 6.21e-07           smallest_sin_value = 1.00e+00
davidson iteration   11:   krylov dim =  12   energy =     -22.669745133927       residual = 2.73e-07           smallest_sin_value = 1.00e+00
davidson iteration   12:   krylov dim =  13   energy =     -22.669746010881       residual = 1.73e-07           smallest_sin_value = 1.00e+00
davidson iteration   13:   krylov dim =  14   energy =     -22.669745595894       residual = 3.83e-08           smallest_sin_value = 1.00e+00
davidson iteration   14:   krylov dim =  15   energy =     -22.669745570126       residual = 1.98e-08           smallest_sin_value = 1.00e+00
davidson iteration   15:   krylov dim =  16   energy =     -22.669745728039       residual = 6.57e-09           smallest_sin_value = 1.00e+00
davidson solver converged in         15 iterations

On rank 0, check n_tot: 61 and evec_eigen.size(): 61
The largest weight on the derivative vector for shift 6.2500e-02 is 1.910226e-03

solving harmonic davidson linear method for identity shift 2.5000e-01, overlap shift 2.5000e+00 and omega 0.0000e+00

iteration solving starts here(engine) 


davidson iteration    0:   krylov dim =   1   energy =     -22.669738952182       residual = 9.48e-06           smallest_sin_value = 1.00e+00
davidson iteration    1:   krylov dim =   2   energy =     -22.669740053526       residual = 4.75e-06           smallest_sin_value = 1.00e+00
davidson iteration    2:   krylov dim =   3   energy =     -22.669740611264       residual = 3.34e-06           smallest_sin_value = 1.00e+00
davidson iteration    3:   krylov dim =   4   energy =     -22.669741453346       residual = 1.57e-06           smallest_sin_value = 1.00e+00
davidson iteration    4:   krylov dim =   5   energy =     -22.669741161479       residual = 1.20e-06           smallest_sin_value = 1.00e+00
davidson iteration    5:   krylov dim =   6   energy =     -22.669741357270       residual = 5.56e-07           smallest_sin_value = 1.00e+00
davidson iteration    6:   krylov dim =   7   energy =     -22.669741349662       residual = 4.53e-07           smallest_sin_value = 1.00e+00
davidson iteration    7:   krylov dim =   8   energy =     -22.669741323084       residual = 2.50e-07           smallest_sin_value = 1.00e+00
davidson iteration    8:   krylov dim =   9   energy =     -22.669741096386       residual = 1.38e-07           smallest_sin_value = 1.00e+00
davidson iteration    9:   krylov dim =  10   energy =     -22.669741454603       residual = 1.04e-07           smallest_sin_value = 1.00e+00
davidson iteration   10:   krylov dim =  11   energy =     -22.669741597090       residual = 7.66e-08           smallest_sin_value = 1.00e+00
davidson iteration   11:   krylov dim =  12   energy =     -22.669741758169       residual = 2.43e-08           smallest_sin_value = 1.00e+00
davidson iteration   12:   krylov dim =  13   energy =     -22.669741788087       residual = 8.13e-09           smallest_sin_value = 1.00e+00
davidson solver converged in         12 iterations

On rank 0, check n_tot: 61 and evec_eigen.size(): 61
The largest weight on the derivative vector for shift 2.5000e-01 is 5.342818e-04

solving harmonic davidson linear method for identity shift 1.0000e+00, overlap shift 1.0000e+01 and omega 0.0000e+00

iteration solving starts here(engine) 


davidson iteration    0:   krylov dim =   1   energy =     -22.669738952182       residual = 9.48e-06           smallest_sin_value = 1.00e+00
davidson iteration    1:   krylov dim =   2   energy =     -22.669739334598       residual = 5.37e-06           smallest_sin_value = 1.00e+00
davidson iteration    2:   krylov dim =   3   energy =     -22.669739600198       residual = 3.56e-06           smallest_sin_value = 1.00e+00
davidson iteration    3:   krylov dim =   4   energy =     -22.669739939911       residual = 1.17e-06           smallest_sin_value = 1.00e+00
davidson iteration    4:   krylov dim =   5   energy =     -22.669739813198       residual = 1.05e-06           smallest_sin_value = 1.00e+00
davidson iteration    5:   krylov dim =   6   energy =     -22.669739819447       residual = 4.12e-07           smallest_sin_value = 1.00e+00
davidson iteration    6:   krylov dim =   7   energy =     -22.669739897468       residual = 2.11e-07           smallest_sin_value = 1.00e+00
davidson iteration    7:   krylov dim =   8   energy =     -22.669739885957       residual = 1.29e-07           smallest_sin_value = 1.00e+00
davidson iteration    8:   krylov dim =   9   energy =     -22.669739806043       residual = 4.64e-08           smallest_sin_value = 1.00e+00
davidson iteration    9:   krylov dim =  10   energy =     -22.669739892663       residual = 2.31e-08           smallest_sin_value = 1.00e+00
davidson iteration   10:   krylov dim =  11   energy =     -22.669739914418       residual = 9.66e-09           smallest_sin_value = 1.00e+00
davidson solver converged in         10 iterations

On rank 0, check n_tot: 61 and evec_eigen.size(): 61
The largest weight on the derivative vector for shift 1.0000e+00 is 1.625717e-04

About to broadcast update vector

Printing all timers used during this execution:
  eigen solver                               0.014597 seconds

After print_timers
After EngineObj->wfn_update_compute(), N is: 61 and numParams is: 60

************************************************************
Updating the guiding function with the middle shift's update
************************************************************

  Execution time = 1.1654e+02
  </log>
  <optVariables href="FORM.s001.opt.xml">
 uu_0                 2.961694e-01 1 1  ON 0
 uu_1                 1.205082e-01 1 1  ON 1
 uu_2                 6.757977e-03 1 1  ON 2
 uu_3                -6.060224e-02 1 1  ON 3
 uu_4                -1.014752e-01 1 1  ON 4
 uu_5                -1.275216e-01 1 1  ON 5
 uu_6                -1.431087e-01 1 1  ON 6
 uu_7                -1.475572e-01 1 1  ON 7
 uu_8                -1.391078e-01 1 1  ON 8
 uu_9                -1.148540e-01 1 1  ON 9
 ud_0                 4.129262e-01 1 1  ON 10
 ud_1                 1.305853e-01 1 1  ON 11
 ud_2                -1.597575e-02 1 1  ON 12
 ud_3                -9.424283e-02 1 1  ON 13
 ud_4                -1.371175e-01 1 1  ON 14
 ud_5                -1.623247e-01 1 1  ON 15
 ud_6                -1.757155e-01 1 1  ON 16
 ud_7                -1.772536e-01 1 1  ON 17
 ud_8                -1.652094e-01 1 1  ON 18
 ud_9                -1.361837e-01 1 1  ON 19
 eC_0                -5.847784e-01 1 1  ON 20
 eC_1                -4.326921e-01 1 1  ON 21
 eC_2                -1.806090e-01 1 1  ON 22
 eC_3                -2.533927e-02 1 1  ON 23
 eC_4                 5.762993e-02 1 1  ON 24
 eC_5                 1.605250e-01 1 1  ON 25
 eC_6                 2.601266e-01 1 1  ON 26
 eC_7                 3.747334e-01 1 1  ON 27
 eC_8                 2.813783e-01 1 1  ON 28
 eC_9                 8.199076e-02 1 1  ON 29
 eO_0                -1.186730e+00 1 1  ON 30
 eO_1                -8.090383e-01 1 1  ON 31
 eO_2                -3.441534e-01 1 1  ON 32
 eO_3                -1.913350e-03 1 1  ON 33
 eO_4                 2.242082e-01 1 1  ON 34
 eO_5                 3.899110e-01 1 1  ON 35
 eO_6                 4.354695e-01 1 1  ON 36
 eO_7                 4.319014e-01 1 1  ON 37
 eO_8                 4.084348e-01 1 1  ON 38
 eO_9                 3.116112e-01 1 1  ON 39
eH1_0                -2.095475e-01 1 1  ON 40
eH1_1                -1.171774e-01 1 1  ON 41
eH1_2                -7.983400e-02 1 1  ON 42
eH1_3                -6.003241e-02 1 1  ON 43
eH1_4                 1.119500e-02 1 1  ON 44
eH1_5                 5.597014e-02 1 1  ON 45
eH1_6                 9.160128e-02 1 1  ON 46
eH1_7                 6.451781e-02 1 1  ON 47
eH1_8                 8.520202e-03 1 1  ON 48
eH1_9                 6.338059e-02 1 1  ON 49
eH2_0                -2.061766e-01 1 1  ON 50
eH2_1                -1.134392e-01 1 1  ON 51
eH2_2                -7.569562e-02 1 1  ON 52
eH2_3                -5.591152e-02 1 1  ON 53
eH2_4                 1.484605e-02 1 1  ON 54
eH2_5                 5.974303e-02 1 1  ON 55
eH2_6                 9.541845e-02 1 1  ON 56
eH2_7                 6.973952e-02 1 1  ON 57
eH2_8                 1.492584e-02 1 1  ON 58
eH2_9                 6.503322e-02 1 1  ON 59
  </optVariables>
eC
Array
eH1
Array
eH2
Array
eO
Array
ud
Array
uu
Array
   Restore the number of walkers to 1, removing 0 walkers.
</opt>
</optimization-report>

*************************************************************
Generating a new sample based on the updated guiding function
*************************************************************

<optimization-report>
<vmc stage="main" blocks="125">
  Cannot make clones again. Use existing 1 clones
  Initial partition of walkers 0 1 
  Using Particle by Particle moves
  Walker moves without drift
  Total Sample Size   =2000000
  Walker distribution on root = 0 1 
  Using Locality Approximation
====================================================
  SimpleFixedNodeBranch::finalize after a VMC block
    QMC counter        = 1
    time step          = 0.05
    reference energy   = -22.5593
    reference variance = 0.413467
====================================================
  Execution time = 8.6956e+01
</vmc>
<opt stage="setup">
  <log>
   Reading configurations from h5FileRoot FORM.s001
  Using Nonlocal PP in Opt: NonLocalECP
   Number of samples loaded to each thread : 15625 
  VMC Eavg = -2.2670e+01
  VMC Evar = 5.1507e-01
  Total weights = 2.0000e+06
  Execution time = 7.0735e+00
  </log>
</opt>
<opt stage="main" walkers="15625">
  <log>

******************************************************************
Comparing different shifts' cost function values on updated sample
******************************************************************

Start of engine's reset
Before block part of reset
end of engine's reset
Restored printouts from recurive_blocking in energy_target_accu

Crude block analysis of variance gives:     variance =       0.515087499864
                                         uncertainty =       0.004157273631

Now for a blocking analysis of energy uncertainty:

energy and target function accumulation statistics:


Restored printouts from recurive_blocking in energy_target_accu

Crude block analysis of variance gives:     variance =       0.515087499864
                                         uncertainty =       0.004157273631

Now for a blocking analysis of energy uncertainty:

  error estimate for blocks of size 2^( 1) =       0.000507514729
  error estimate for blocks of size 2^( 2) =       0.000525470853
  error estimate for blocks of size 2^( 3) =       0.000541379750
  error estimate for blocks of size 2^( 4) =       0.000552464192
  error estimate for blocks of size 2^( 5) =       0.000558946592
  error estimate for blocks of size 2^( 6) =       0.000563511976
  error estimate for blocks of size 2^( 7) =       0.000564139492

      target function =                  N/A
              le_mean =     -22.669962751784
             les_mean =     514.442353309156
             stat err =       0.000559765563
             autocorr =       1.216508235024
              std dev =       0.717734212277
             le_variance =       0.515142399473

Start of engine's reset
Before block part of reset
end of engine's reset
Restored printouts from recurive_blocking in energy_target_accu

Crude block analysis of variance gives:     variance =       0.515095030232
                                         uncertainty =       0.004156825865

Now for a blocking analysis of energy uncertainty:

energy and target function accumulation statistics:


Restored printouts from recurive_blocking in energy_target_accu

Crude block analysis of variance gives:     variance =       0.515095030232
                                         uncertainty =       0.004156825865

Now for a blocking analysis of energy uncertainty:

  error estimate for blocks of size 2^( 1) =       0.000507518070
  error estimate for blocks of size 2^( 2) =       0.000525475774
  error estimate for blocks of size 2^( 3) =       0.000541382695
  error estimate for blocks of size 2^( 4) =       0.000552464359
  error estimate for blocks of size 2^( 5) =       0.000558951510
  error estimate for blocks of size 2^( 6) =       0.000563531469
  error estimate for blocks of size 2^( 7) =       0.000564124297

      target function =                  N/A
              le_mean =     -22.669958743379
             les_mean =     514.442178351007
             stat err =       0.000559767909
             autocorr =       1.216502413883
              std dev =       0.717738937267
             le_variance =       0.515149182069

Start of engine's reset
Before block part of reset
end of engine's reset
Restored printouts from recurive_blocking in energy_target_accu

Crude block analysis of variance gives:     variance =       0.514958722312
                                         uncertainty =       0.004156043238

Now for a blocking analysis of energy uncertainty:

energy and target function accumulation statistics:


Restored printouts from recurive_blocking in energy_target_accu

Crude block analysis of variance gives:     variance =       0.514958722312
                                         uncertainty =       0.004156043238

Now for a blocking analysis of energy uncertainty:

  error estimate for blocks of size 2^( 1) =       0.000507450847
  error estimate for blocks of size 2^( 2) =       0.000525413127
  error estimate for blocks of size 2^( 3) =       0.000541325493
  error estimate for blocks of size 2^( 4) =       0.000552413157
  error estimate for blocks of size 2^( 5) =       0.000558902735
  error estimate for blocks of size 2^( 6) =       0.000563483547
  error estimate for blocks of size 2^( 7) =       0.000564078599

      target function =                  N/A
              le_mean =     -22.669961631843
             les_mean =     514.442172856841
             stat err =       0.000559719509
             autocorr =       1.216614324380
              std dev =       0.717643870679
             le_variance =       0.515012725124

Start of engine's reset
Before block part of reset
end of engine's reset
Restored printouts from recurive_blocking in energy_target_accu

Crude block analysis of variance gives:     variance =       0.515046524308
                                         uncertainty =       0.004157096482

Now for a blocking analysis of energy uncertainty:

energy and target function accumulation statistics:


Restored printouts from recurive_blocking in energy_target_accu

Crude block analysis of variance gives:     variance =       0.515046524308
                                         uncertainty =       0.004157096482

Now for a blocking analysis of energy uncertainty:

  error estimate for blocks of size 2^( 1) =       0.000507494445
  error estimate for blocks of size 2^( 2) =       0.000525452302
  error estimate for blocks of size 2^( 3) =       0.000541362338
  error estimate for blocks of size 2^( 4) =       0.000552448413
  error estimate for blocks of size 2^( 5) =       0.000558932158
  error estimate for blocks of size 2^( 6) =       0.000563500666
  error estimate for blocks of size 2^( 7) =       0.000564122495

      target function =                  N/A
              le_mean =     -22.669962493233
             les_mean =     514.442300411089
             stat err =       0.000559750933
             autocorr =       1.216541885407
              std dev =       0.717705527378
             le_variance =       0.515101224030


        shift_i        shift_s       max param change    cost function value
   ------------   ------------   --------------------   --------------------
            N/A            N/A                    N/A       -22.669962751784        initial  <--
     6.2500e-02     6.2500e-01             1.9102e-03       -22.669958743379
     2.5000e-01     2.5000e+00             5.3428e-04       -22.669961631843
     1.0000e+00     1.0000e+01             1.6257e-04       -22.669962493233

***********************************************************
Reverting to old parameters and increasing shift magnitudes
***********************************************************

  Execution time = 122.3669
  </log>
  <optVariables href="FORM.s001.opt.xml">
 uu_0                 2.961537e-01 1 1  ON 0
 uu_1                 1.202908e-01 1 1  ON 1
 uu_2                 6.646705e-03 1 1  ON 2
 uu_3                -6.076154e-02 1 1  ON 3
 uu_4                -1.014089e-01 1 1  ON 4
 uu_5                -1.275830e-01 1 1  ON 5
 uu_6                -1.430585e-01 1 1  ON 6
 uu_7                -1.471933e-01 1 1  ON 7
 uu_8                -1.392473e-01 1 1  ON 8
 uu_9                -1.147715e-01 1 1  ON 9
 ud_0                 4.128248e-01 1 1  ON 10
 ud_1                 1.305796e-01 1 1  ON 11
 ud_2                -1.615176e-02 1 1  ON 12
 ud_3                -9.432969e-02 1 1  ON 13
 ud_4                -1.372633e-01 1 1  ON 14
 ud_5                -1.624072e-01 1 1  ON 15
 ud_6                -1.757961e-01 1 1  ON 16
 ud_7                -1.773382e-01 1 1  ON 17
 ud_8                -1.651039e-01 1 1  ON 18
 ud_9                -1.361137e-01 1 1  ON 19
 eC_0                -5.844482e-01 1 1  ON 20
 eC_1                -4.323386e-01 1 1  ON 21
 eC_2                -1.801978e-01 1 1  ON 22
 eC_3                -2.525899e-02 1 1  ON 23
 eC_4                 5.717757e-02 1 1  ON 24
 eC_5                 1.604344e-01 1 1  ON 25
 eC_6                 2.601097e-01 1 1  ON 26
 eC_7                 3.747587e-01 1 1  ON 27
 eC_8                 2.809755e-01 1 1  ON 28
 eC_9                 8.177628e-02 1 1  ON 29
 eO_0                -1.186344e+00 1 1  ON 30
 eO_1                -8.086480e-01 1 1  ON 31
 eO_2                -3.437099e-01 1 1  ON 32
 eO_3                -1.866425e-03 1 1  ON 33
 eO_4                 2.241305e-01 1 1  ON 34
 eO_5                 3.900791e-01 1 1  ON 35
 eO_6                 4.349352e-01 1 1  ON 36
 eO_7                 4.313918e-01 1 1  ON 37
 eO_8                 4.087642e-01 1 1  ON 38
 eO_9                 3.113295e-01 1 1  ON 39
eH1_0                -2.096233e-01 1 1  ON 40
eH1_1                -1.170488e-01 1 1  ON 41
eH1_2                -7.945405e-02 1 1  ON 42
eH1_3                -5.993834e-02 1 1  ON 43
eH1_4                 1.112178e-02 1 1  ON 44
[...]

On rank 0, check n_tot: 61 and evec_eigen.size(): 61
The largest weight on the derivative vector for shift 2.3283e+12 is 0.000000e+00

solving harmonic davidson linear method for identity shift 9.3132e+12, overlap shift 9.3132e+13 and omega 0.0000e+00

iteration solving starts here(engine) 


davidson iteration    0:   krylov dim =   1   energy =     -22.668814233638       residual = 5.17e-06           smallest_sin_value = 1.00e+00
davidson iteration    1:   krylov dim =   2   energy =     -22.668814233638       residual = 4.45e-06           smallest_sin_value = 1.00e+00
davidson iteration    2:   krylov dim =   3   energy =     -22.668814233638       residual = 7.25e-05           smallest_sin_value = 1.00e+00
davidson iteration    3:   krylov dim =   4   energy =     -22.667875981001       residual = 6.27e-04           smallest_sin_value = 1.00e+00
davidson iteration    4:   krylov dim =   5   energy =     -22.668739210204       residual = 1.20e-05           smallest_sin_value = 1.00e+00
davidson iteration    5:   krylov dim =   6   energy =     -22.661705526522       residual = 3.25e-02           smallest_sin_value = 1.00e+00
davidson iteration    6:   krylov dim =   7   energy =     -22.628387718260       residual = 9.34e-01           smallest_sin_value = 1.00e+00
davidson iteration    7:   krylov dim =   8   energy =     -22.624068604962       residual = 1.11e+00           smallest_sin_value = 1.00e+00
davidson iteration    8:   krylov dim =   9   energy =     -22.639014543018       residual = 4.50e-01           smallest_sin_value = 1.00e+00
davidson iteration    9:   krylov dim =  10   energy =     -22.639916521219       residual = 4.57e-01           smallest_sin_value = 1.00e+00
davidson iteration   10:   krylov dim =  11   energy =     -22.597009603703       residual = 2.90e+00           smallest_sin_value = 1.00e+00
davidson iteration   11:   krylov dim =  12   energy =     -22.700065315475       residual = 5.63e-01           smallest_sin_value = 1.00e+00
davidson iteration   12:   krylov dim =  13   energy =     -22.553050417121       residual = 6.95e+00           smallest_sin_value = 1.00e+00
davidson iteration   13:   krylov dim =  14   energy =     -22.631829543162       residual = 7.49e-01           smallest_sin_value = 1.00e+00
davidson iteration   14:   krylov dim =  15   energy =     -22.725241103191       residual = 1.70e+00           smallest_sin_value = 1.00e+00
davidson iteration   15:   krylov dim =  16   energy =     -22.537980135995       residual = 8.62e+00           smallest_sin_value = 1.00e+00
davidson iteration   16:   krylov dim =  17   energy =     -23.134954842537       residual = 1.15e+02           smallest_sin_value = 1.00e+00
davidson iteration   17:   krylov dim =  18   energy =     -22.669276486229       residual = 1.03e-01           smallest_sin_value = 1.00e+00
davidson iteration   18:   krylov dim =  19   energy =     -22.727682567012       residual = 1.79e+00           smallest_sin_value = 1.00e+00
davidson iteration   19:   krylov dim =  20   energy =     -22.608810498521       residual = 1.71e+00           smallest_sin_value = 1.00e+00
davidson iteration   20:   krylov dim =  21   energy =     -22.360019790938       residual = 6.16e+01           smallest_sin_value = 1.00e+00
davidson iteration   21:   krylov dim =  22   energy =     -21.800156172613       residual = 4.07e+02           smallest_sin_value = 1.00e+00
davidson iteration   22:   krylov dim =  23   energy =     -23.437594373906       residual = 3.15e+02           smallest_sin_value = 1.00e+00
davidson iteration   23:   krylov dim =  24   energy =     -22.367597497306       residual = 5.69e+01           smallest_sin_value = 1.00e+00
davidson iteration   24:   krylov dim =  25   energy =     -23.182526599518       residual = 1.27e+02           smallest_sin_value = 1.00e+00
davidson iteration   25:   krylov dim =  26   energy =     -23.035533895521       residual = 7.54e+01           smallest_sin_value = 1.00e+00
davidson iteration   26:   krylov dim =  27   energy =     -23.017635484325       residual = 7.93e+01           smallest_sin_value = 1.00e+00
davidson iteration   27:   krylov dim =  28   energy =     -22.057840797109       residual = 2.22e+02           smallest_sin_value = 1.00e+00
davidson iteration   28:   krylov dim =  29   energy =     -21.918448606306       residual = 3.21e+02           smallest_sin_value = 1.00e+00
davidson iteration   29:   krylov dim =  30   energy =     -22.510466225353       residual = 1.39e+01           smallest_sin_value = 1.00e+00
davidson iteration   30:   krylov dim =  31   energy =     -22.775242131827       residual = 1.38e+01           smallest_sin_value = 1.00e+00
davidson iteration   31:   krylov dim =  32   energy =     -19.795698355668       residual = 4.61e+03           smallest_sin_value = 1.00e+00
davidson iteration   32:   krylov dim =  33   energy =     -23.672650799662       residual = 5.83e+02           smallest_sin_value = 1.00e+00
davidson iteration   33:   krylov dim =  34   energy =     -22.330973686358       residual = 6.09e+01           smallest_sin_value = 9.98e-01
davidson iteration   34:   krylov dim =  35   energy =     -22.074671483011       residual = 2.18e+02           smallest_sin_value = 9.95e-01
davidson iteration   35 stopping due to small subspace S singular value of 9.74e-01
davidson solver did not converge after         35 iterations

On rank 0, check n_tot: 61 and evec_eigen.size(): 61
The largest weight on the derivative vector for shift 9.3132e+12 is 7.791519e-18

About to broadcast update vector

Printing all timers used during this execution:
  eigen solver                               0.361030 seconds

After print_timers
After EngineObj->wfn_update_compute(), N is: 61 and numParams is: 60

************************************************************
Updating the guiding function with the middle shift's update
************************************************************

  Execution time = 1.1684e+02
  </log>
  <optVariables href="FORM.s039.opt.xml">
 uu_0                 2.960731e-01 1 1  ON 0
 uu_1                 1.202905e-01 1 1  ON 1
 uu_2                 6.710891e-03 1 1  ON 2
 uu_3                -6.073147e-02 1 1  ON 3
 uu_4                -1.013726e-01 1 1  ON 4
 uu_5                -1.275760e-01 1 1  ON 5
 uu_6                -1.431643e-01 1 1  ON 6
 uu_7                -1.472175e-01 1 1  ON 7
 uu_8                -1.391307e-01 1 1  ON 8
 uu_9                -1.146513e-01 1 1  ON 9
 ud_0                 4.129714e-01 1 1  ON 10
 ud_1                 1.306434e-01 1 1  ON 11
 ud_2                -1.607301e-02 1 1  ON 12
 ud_3                -9.428128e-02 1 1  ON 13
 ud_4                -1.372190e-01 1 1  ON 14
 ud_5                -1.625252e-01 1 1  ON 15
 ud_6                -1.756739e-01 1 1  ON 16
 ud_7                -1.774020e-01 1 1  ON 17
 ud_8                -1.651196e-01 1 1  ON 18
 ud_9                -1.360199e-01 1 1  ON 19
 eC_0                -5.846819e-01 1 1  ON 20
 eC_1                -4.324960e-01 1 1  ON 21
 eC_2                -1.802543e-01 1 1  ON 22
 eC_3                -2.525887e-02 1 1  ON 23
 eC_4                 5.721414e-02 1 1  ON 24
 eC_5                 1.605929e-01 1 1  ON 25
 eC_6                 2.601670e-01 1 1  ON 26
 eC_7                 3.746905e-01 1 1  ON 27
 eC_8                 2.811327e-01 1 1  ON 28
 eC_9                 8.187598e-02 1 1  ON 29
 eO_0                -1.186558e+00 1 1  ON 30
 eO_1                -8.087100e-01 1 1  ON 31
 eO_2                -3.437626e-01 1 1  ON 32
 eO_3                -1.934839e-03 1 1  ON 33
 eO_4                 2.239534e-01 1 1  ON 34
 eO_5                 3.901344e-01 1 1  ON 35
 eO_6                 4.350641e-01 1 1  ON 36
 eO_7                 4.316148e-01 1 1  ON 37
 eO_8                 4.086607e-01 1 1  ON 38
 eO_9                 3.114729e-01 1 1  ON 39
eH1_0                -2.097112e-01 1 1  ON 40
eH1_1                -1.170314e-01 1 1  ON 41
eH1_2                -7.949446e-02 1 1  ON 42
eH1_3                -5.989565e-02 1 1  ON 43
eH1_4                 1.094962e-02 1 1  ON 44
eH1_5                 5.596120e-02 1 1  ON 45
eH1_6                 9.143912e-02 1 1  ON 46
eH1_7                 6.473230e-02 1 1  ON 47
eH1_8                 8.362010e-03 1 1  ON 48
eH1_9                 6.343607e-02 1 1  ON 49
eH2_0                -2.062882e-01 1 1  ON 50
eH2_1                -1.131627e-01 1 1  ON 51
eH2_2                -7.556532e-02 1 1  ON 52
eH2_3                -5.607339e-02 1 1  ON 53
eH2_4                 1.475465e-02 1 1  ON 54
eH2_5                 5.989603e-02 1 1  ON 55
eH2_6                 9.548746e-02 1 1  ON 56
eH2_7                 6.998101e-02 1 1  ON 57
eH2_8                 1.468902e-02 1 1  ON 58
eH2_9                 6.492983e-02 1 1  ON 59
  </optVariables>
eC
Array
eH1
Array
eH2
Array
eO
Array
ud
Array
uu
Array
   Restore the number of walkers to 1, removing 0 walkers.
</opt>
</optimization-report>

*************************************************************
Generating a new sample based on the updated guiding function
*************************************************************

<optimization-report>
<vmc stage="main" blocks="125">
  Cannot make clones again. Use existing 1 clones
  Initial partition of walkers 0 1 
  Using Particle by Particle moves
  Walker moves without drift
  Total Sample Size   =2000000
  Walker distribution on root = 0 1 
  Using Locality Approximation
====================================================
  SimpleFixedNodeBranch::finalize after a VMC block
    QMC counter        = 39
    time step          = 0.05
    reference energy   = -22.6977
    reference variance = 0.683205
====================================================
  Execution time = 8.5556e+01
</vmc>
<opt stage="setup">
  <log>
   Reading configurations from h5FileRoot FORM.s039
  Using Nonlocal PP in Opt: NonLocalECP
   Number of samples loaded to each thread : 15625 
  VMC Eavg = -2.2670e+01
  VMC Evar = 5.2865e-01
  Total weights = 2.0000e+06
  Execution time = 7.0857e+00
  </log>
</opt>
<opt stage="main" walkers="15625">
  <log>

******************************************************************
Comparing different shifts' cost function values on updated sample
******************************************************************

Start of engine's reset
Before block part of reset
end of engine's reset
Restored printouts from recurive_blocking in energy_target_accu

Crude block analysis of variance gives:     variance =       0.528737711119
                                         uncertainty =       0.012944928781

Now for a blocking analysis of energy uncertainty:

energy and target function accumulation statistics:


Restored printouts from recurive_blocking in energy_target_accu

Crude block analysis of variance gives:     variance =       0.528737711119
                                         uncertainty =       0.012944928781

Now for a blocking analysis of energy uncertainty:

  error estimate for blocks of size 2^( 1) =       0.000514126174
  error estimate for blocks of size 2^( 2) =       0.000530821807
  error estimate for blocks of size 2^( 3) =       0.000546370927
  error estimate for blocks of size 2^( 4) =       0.000557563351
  error estimate for blocks of size 2^( 5) =       0.000563870640
  error estimate for blocks of size 2^( 6) =       0.000567224304
  error estimate for blocks of size 2^( 7) =       0.000566901420

      target function =                  N/A
              le_mean =     -22.669867440520
             les_mean =     514.451540952262
             stat err =       0.000563889929
             autocorr =       1.202954628114
              std dev =       0.727084208209
             le_variance =       0.528651445827

Start of engine's reset
Before block part of reset
end of engine's reset
Restored printouts from recurive_blocking in energy_target_accu

Crude block analysis of variance gives:     variance =       0.528737711119
                                         uncertainty =       0.012944928781

Now for a blocking analysis of energy uncertainty:

energy and target function accumulation statistics:


Restored printouts from recurive_blocking in energy_target_accu

Crude block analysis of variance gives:     variance =       0.528737711119
                                         uncertainty =       0.012944928781

Now for a blocking analysis of energy uncertainty:

  error estimate for blocks of size 2^( 1) =       0.000514126174
  error estimate for blocks of size 2^( 2) =       0.000530821807
  error estimate for blocks of size 2^( 3) =       0.000546370927
  error estimate for blocks of size 2^( 4) =       0.000557563351
  error estimate for blocks of size 2^( 5) =       0.000563870640
  error estimate for blocks of size 2^( 6) =       0.000567224304
  error estimate for blocks of size 2^( 7) =       0.000566901420

      target function =                  N/A
              le_mean =     -22.669867440520
             les_mean =     514.451540952262
             stat err =       0.000563889929
             autocorr =       1.202954628114
              std dev =       0.727084208209
             le_variance =       0.528651445827

Start of engine's reset
Before block part of reset
end of engine's reset
Restored printouts from recurive_blocking in energy_target_accu

Crude block analysis of variance gives:     variance =       0.528737711119
                                         uncertainty =       0.012944928781

Now for a blocking analysis of energy uncertainty:

energy and target function accumulation statistics:


Restored printouts from recurive_blocking in energy_target_accu

Crude block analysis of variance gives:     variance =       0.528737711119
                                         uncertainty =       0.012944928781

Now for a blocking analysis of energy uncertainty:

  error estimate for blocks of size 2^( 1) =       0.000514126174
  error estimate for blocks of size 2^( 2) =       0.000530821807
  error estimate for blocks of size 2^( 3) =       0.000546370927
  error estimate for blocks of size 2^( 4) =       0.000557563351
  error estimate for blocks of size 2^( 5) =       0.000563870640
  error estimate for blocks of size 2^( 6) =       0.000567224304
  error estimate for blocks of size 2^( 7) =       0.000566901420

      target function =                  N/A
              le_mean =     -22.669867440520
             les_mean =     514.451540952262
             stat err =       0.000563889929
             autocorr =       1.202954628114
              std dev =       0.727084208209
             le_variance =       0.528651445827

Start of engine's reset
Before block part of reset
end of engine's reset
Restored printouts from recurive_blocking in energy_target_accu

Crude block analysis of variance gives:     variance =       0.528737711119
                                         uncertainty =       0.012944928781

Now for a blocking analysis of energy uncertainty:

energy and target function accumulation statistics:


Restored printouts from recurive_blocking in energy_target_accu

Crude block analysis of variance gives:     variance =       0.528737711119
                                         uncertainty =       0.012944928781

Now for a blocking analysis of energy uncertainty:

  error estimate for blocks of size 2^( 1) =       0.000514126174
  error estimate for blocks of size 2^( 2) =       0.000530821807
  error estimate for blocks of size 2^( 3) =       0.000546370927
  error estimate for blocks of size 2^( 4) =       0.000557563351
  error estimate for blocks of size 2^( 5) =       0.000563870640
  error estimate for blocks of size 2^( 6) =       0.000567224304
  error estimate for blocks of size 2^( 7) =       0.000566901420

      target function =                  N/A
              le_mean =     -22.669867440520
             les_mean =     514.451540952262
             stat err =       0.000563889929
             autocorr =       1.202954628114
              std dev =       0.727084208209
             le_variance =       0.528651445827


        shift_i        shift_s       max param change    cost function value
   ------------   ------------   --------------------   --------------------
            N/A            N/A                    N/A       -22.669867440520        initial  <--
     5.8208e+11     5.8208e+12             3.0968e-16       -22.669867440520
     2.3283e+12     2.3283e+13             0.0000e+00       -22.669867440520
     9.3132e+12     9.3132e+13             7.7915e-18       -22.669867440520

***********************************************************
Reverting to old parameters and increasing shift magnitudes
***********************************************************

  Execution time = 121.1081
  </log>
  <optVariables href="FORM.s039.opt.xml">
 uu_0                 2.960731e-01 1 1  ON 0
 uu_1                 1.202905e-01 1 1  ON 1
 uu_2                 6.710891e-03 1 1  ON 2
 uu_3                -6.073147e-02 1 1  ON 3
 uu_4                -1.013726e-01 1 1  ON 4
 uu_5                -1.275760e-01 1 1  ON 5
 uu_6                -1.431643e-01 1 1  ON 6
 uu_7                -1.472175e-01 1 1  ON 7
 uu_8                -1.391307e-01 1 1  ON 8
 uu_9                -1.146513e-01 1 1  ON 9
 ud_0                 4.129714e-01 1 1  ON 10
 ud_1                 1.306434e-01 1 1  ON 11
 ud_2                -1.607301e-02 1 1  ON 12
 ud_3                -9.428128e-02 1 1  ON 13
 ud_4                -1.372190e-01 1 1  ON 14
 ud_5                -1.625252e-01 1 1  ON 15
 ud_6                -1.756739e-01 1 1  ON 16
 ud_7                -1.774020e-01 1 1  ON 17
 ud_8                -1.651196e-01 1 1  ON 18
 ud_9                -1.360199e-01 1 1  ON 19
 eC_0                -5.846819e-01 1 1  ON 20
 eC_1                -4.324960e-01 1 1  ON 21
 eC_2                -1.802543e-01 1 1  ON 22
 eC_3                -2.525887e-02 1 1  ON 23
 eC_4                 5.721414e-02 1 1  ON 24
 eC_5                 1.605929e-01 1 1  ON 25
 eC_6                 2.601670e-01 1 1  ON 26
 eC_7                 3.746905e-01 1 1  ON 27
 eC_8                 2.811327e-01 1 1  ON 28
 eC_9                 8.187598e-02 1 1  ON 29
 eO_0                -1.186558e+00 1 1  ON 30
 eO_1                -8.087100e-01 1 1  ON 31
 eO_2                -3.437626e-01 1 1  ON 32
 eO_3                -1.934839e-03 1 1  ON 33
 eO_4                 2.239534e-01 1 1  ON 34
 eO_5                 3.901344e-01 1 1  ON 35
 eO_6                 4.350641e-01 1 1  ON 36
 eO_7                 4.316148e-01 1 1  ON 37
 eO_8                 4.086607e-01 1 1  ON 38
 eO_9                 3.114729e-01 1 1  ON 39
eH1_0                -2.097112e-01 1 1  ON 40
eH1_1                -1.170314e-01 1 1  ON 41
eH1_2                -7.949446e-02 1 1  ON 42
eH1_3                -5.989565e-02 1 1  ON 43
eH1_4                 1.094962e-02 1 1  ON 44
eH1_5                 5.596120e-02 1 1  ON 45
eH1_6                 9.143912e-02 1 1  ON 46
eH1_7                 6.473230e-02 1 1  ON 47
eH1_8                 8.362010e-03 1 1  ON 48
eH1_9                 6.343607e-02 1 1  ON 49
eH2_0                -2.062882e-01 1 1  ON 50
eH2_1                -1.131627e-01 1 1  ON 51
eH2_2                -7.556532e-02 1 1  ON 52
eH2_3                -5.607339e-02 1 1  ON 53
eH2_4                 1.475465e-02 1 1  ON 54
eH2_5                 5.989603e-02 1 1  ON 55
eH2_6                 9.548746e-02 1 1  ON 56
eH2_7                 6.998101e-02 1 1  ON 57
eH2_8                 1.468902e-02 1 1  ON 58
eH2_9                 6.492983e-02 1 1  ON 59
  </optVariables>
eC
Array
eH1
Array
eH2
Array
eO
Array
ud
Array
uu
Array
   Restore the number of walkers to 1, removing 0 walkers.
</opt>
</optimization-report>
  QMC Execution time = 2.3820e+02 secs
  Total Execution time = 9.5355e+03 secs

=========================================================
  A new xml input file : FORM.s039.cont.xml
