Rank =    0  Free Memory = 79539 MB
Rank =   32  Free Memory = 78078 MB
Rank =   33  Free Memory = 78078 MB
Rank =   34  Free Memory = 78078 MB
Rank =   35  Free Memory = 78078 MB
Rank =   36  Free Memory = 78078 MB
Rank =   37  Free Memory = 78078 MB
Rank =   38  Free Memory = 78078 MB
Rank =   39  Free Memory = 78078 MB
Rank =   40  Free Memory = 78078 MB
Rank =   41  Free Memory = 78078 MB
Rank =   42  Free Memory = 78078 MB
Rank =   43  Free Memory = 78078 MB
Rank =   44  Free Memory = 78078 MB
Rank =   45  Free Memory = 78078 MB
Rank =   46  Free Memory = 78078 MB
Rank =   47  Free Memory = 78078 MB
Rank =   48  Free Memory = 78078 MB
Rank =   49  Free Memory = 78078 MB
Rank =   50  Free Memory = 78078 MB
Rank =   51  Free Memory = 78078 MB
Rank =   52  Free Memory = 78078 MB
Rank =   53  Free Memory = 78078 MB
Rank =   54  Free Memory = 78078 MB
Rank =   55  Free Memory = 78078 MB
Rank =   56  Free Memory = 78078 MB
Rank =   57  Free Memory = 78078 MB
Rank =   58  Free Memory = 78078 MB
Rank =   59  Free Memory = 78078 MB
Rank =   60  Free Memory = 78078 MB
  Input file(s): opt_h2o_gs_gvptt_run003f.xml 

=====================================================
                    QMCPACK 3.7.9

       (c) Copyright 2003-  QMCPACK developers

                    Please cite:
 J. Kim et al. J. Phys. Cond. Mat. 30 195901 (2018)
      https://doi.org/10.1088/1361-648X/aab9c3

  Git branch: gvp
  Last git commit: 39b7557df04c29964085ccccce933740e3918067-dirty
  Last git commit date: Wed Mar 22 11:37:25 2023 -0700
  Last git commit subject: deleting more debugging statements
=====================================================
  Global options 

  Total number of MPI ranks = 128
  Number of MPI groups      = 1
  MPI group ID              = 0
  Number of ranks in group  = 128
  MPI ranks per node        = 32
  OMP 1st level threads     = 1
  OMP nested threading disabled or only 1 thread on the 2nd level

  Precision used in this calculation, see definitions in the manual:
  Base precision      = double
  Full precision      = double

  Structure-of-arrays (SoA) optimization enabled

  Input XML = opt_h2o_gs_gvptt_run003f.xml
Rank =   61  Free Memory = 78078 MB
Rank =   62  Free Memory = 78078 MB
Rank =   63  Free Memory = 78078 MB
Rank =   64  Free Memory = 78726 MB
Rank =   65  Free Memory = 78726 MB
Rank =   66  Free Memory = 78725 MB
Rank =   67  Free Memory = 78725 MB
Rank =   68  Free Memory = 78725 MB
Rank =   69  Free Memory = 78725 MB
Rank =   70  Free Memory = 78725 MB
Rank =   71  Free Memory = 78725 MB
Rank =   72  Free Memory = 78725 MB
Rank =   73  Free Memory = 78725 MB
Rank =   74  Free Memory = 78725 MB
Rank =   75  Free Memory = 78725 MB
Rank =   76  Free Memory = 78725 MB
Rank =   77  Free Memory = 78725 MB
Rank =   78  Free Memory = 78725 MB
Rank =   79  Free Memory = 78725 MB
Rank =   80  Free Memory = 78725 MB
Rank =   81  Free Memory = 78725 MB
Rank =   82  Free Memory = 78725 MB
Rank =   83  Free Memory = 78725 MB
Rank =   84  Free Memory = 78725 MB
Rank =   85  Free Memory = 78725 MB
Rank =   86  Free Memory = 78725 MB
Rank =   87  Free Memory = 78725 MB
Rank =   88  Free Memory = 78725 MB
Rank =   89  Free Memory = 78725 MB
Rank =   90  Free Memory = 78725 MB
Rank =   91  Free Memory = 78725 MB
Rank =   92  Free Memory = 78725 MB
Rank =   93  Free Memory = 78725 MB
Rank =   94  Free Memory = 78725 MB
Rank =   95  Free Memory = 78725 MB
Rank =   96  Free Memory = 78654 MB
Rank =   97  Free Memory = 78654 MB
Rank =   98  Free Memory = 78654 MB
Rank =   99  Free Memory = 78654 MB
Rank =  100  Free Memory = 78654 MB
Rank =  101  Free Memory = 78654 MB
Rank =  102  Free Memory = 78654 MB
Rank =  103  Free Memory = 78654 MB
Rank =  104  Free Memory = 78654 MB
Rank =  105  Free Memory = 78654 MB
Rank =  106  Free Memory = 78654 MB
Rank =  107  Free Memory = 78654 MB
Rank =  108  Free Memory = 78654 MB
Rank =  109  Free Memory = 78654 MB
Rank =  110  Free Memory = 78654 MB
Rank =  111  Free Memory = 78654 MB
Rank =  112  Free Memory = 78654 MB
Rank =  113  Free Memory = 78654 MB
Rank =  114  Free Memory = 78654 MB
Rank =  115  Free Memory = 78654 MB
Rank =  116  Free Memory = 78654 MB
Rank =  117  Free Memory = 78654 MB
Rank =  118  Free Memory = 78654 MB
Rank =  119  Free Memory = 78654 MB
Rank =  120  Free Memory = 78654 MB
Rank =  121  Free Memory = 78654 MB
Rank =  122  Free Memory = 78654 MB
Rank =  123  Free Memory = 78654 MB
Rank =  124  Free Memory = 78654 MB
Rank =  125  Free Memory = 78654 MB
Rank =  126  Free Memory = 78654 MB
Rank =  127  Free Memory = 78654 MB
Rank =   31  Free Memory = 79521 MB
Rank =    1  Free Memory = 79539 MB
Rank =    2  Free Memory = 79539 MB
Rank =    3  Free Memory = 79539 MB
Rank =    4  Free Memory = 79538 MB
Rank =    5  Free Memory = 79538 MB
Rank =    6  Free Memory = 79537 MB
Rank =    7  Free Memory = 79537 MB
Rank =    8  Free Memory = 79537 MB
Rank =    9  Free Memory = 79537 MB
Rank =   10  Free Memory = 79537 MB
Rank =   11  Free Memory = 79537 MB
Rank =   12  Free Memory = 79537 MB
Rank =   13  Free Memory = 79537 MB
Rank =   14  Free Memory = 79536 MB
Rank =   15  Free Memory = 79522 MB
Rank =   16  Free Memory = 79521 MB
Rank =   17  Free Memory = 79521 MB
Rank =   18  Free Memory = 79521 MB
Rank =   19  Free Memory = 79521 MB
Rank =   20  Free Memory = 79521 MB
Rank =   21  Free Memory = 79521 MB
Rank =   22  Free Memory = 79521 MB
Rank =   23  Free Memory = 79521 MB
Rank =   24  Free Memory = 79521 MB
Rank =   25  Free Memory = 79521 MB
Rank =   26  Free Memory = 79521 MB
Rank =   27  Free Memory = 79521 MB
Rank =   28  Free Memory = 79521 MB
Rank =   29  Free Memory = 79521 MB
Rank =   30  Free Memory = 79521 MB

  Project = H2O
  date    = 2023-04-09 18:27:35 PDT
  host    = n0096.savio3

 Random Number
 -------------
  Offset for the random number seeds based on time: 519

  Range of prime numbers to use as seeds over processors and threads = 3733-4817


 Particle Set 
 ------------
  Name: e
  All the species have the same mass 1
  Particle set size: 8

 Particle Set 
 ------------
  Name: ion0
  All the species have the same mass 1
  Particle set size: 3

 Wavefunction setup: 
 ------------------- 
  Name: psi0

   Jastrow
   -------
    Name: J2   Type: Two-Body   Function: Bspline

    Radial function for species: u - u
     Number of parameters: 10
     Cusp: -0.25
     Cutoff radius: 10

     Name                        Value Type Recompute Use Index
     ---- ---------------------------- ---- --------- --- -----
     uu_0                 2.098000e-01    1         1  ON     0
     uu_1                 4.810422e-02    1         1  ON     1
     uu_2                -4.517452e-02    1         1  ON     2
     uu_3                -9.942900e-02    1         1  ON     3
     uu_4                -1.325366e-01    1         1  ON     4
     uu_5                -1.385152e-01    1         1  ON     5
     uu_6                -1.150449e-01    1         1  ON     6
     uu_7                -4.257158e-02    1         1  ON     7
     uu_8                 9.777373e-02    1         1  ON     8
     uu_9                 1.225505e-01    1         1  ON     9

    Radial function for species: u - d
     Number of parameters: 10
     Cusp: -5.000000e-01
     Cutoff radius: 1.000000e+01

     Name                        Value Type Recompute Use Index
     ---- ---------------------------- ---- --------- --- -----
     ud_0                 3.463231e-01    1         1  ON     0
     ud_1                 9.089905e-02    1         1  ON     1
     ud_2                -1.344790e-02    1         1  ON     2
     ud_3                -7.172925e-02    1         1  ON     3
     ud_4                -1.199510e-01    1         1  ON     4
     ud_5                -1.535074e-01    1         1  ON     5
     ud_6                -1.556998e-01    1         1  ON     6
     ud_7                -1.107672e-01    1         1  ON     7
     ud_8                 1.407801e-03    1         1  ON     8
     ud_9                 9.244352e-02    1         1  ON     9


   Jastrow
   -------
    Name: J1   Type: One-Body   Function: Bspline

    Radial function for element: O
     Number of parameters: 10
     Cusp: 0.000000e+00
     Cutoff radius: 1.000000e+01

     Name                        Value Type Recompute Use Index
     ---- ---------------------------- ---- --------- --- -----
     eO_0                -7.561679e-01    1         1  ON     0
     eO_1                -4.427567e-01    1         1  ON     1
     eO_2                -4.536668e-02    1         1  ON     2
     eO_3                 2.044045e-01    1         1  ON     3
     eO_4                 2.979160e-01    1         1  ON     4
     eO_5                 3.141659e-01    1         1  ON     5
     eO_6                 2.539434e-01    1         1  ON     6
     eO_7                 1.158792e-01    1         1  ON     7
     eO_8                 2.853293e-02    1         1  ON     8
     eO_9                 1.861835e-02    1         1  ON     9

    Radial function for element: H1
     Number of parameters: 10
     Cusp: 0.000000e+00
     Cutoff radius: 1.000000e+01

      Name                        Value Type Recompute Use Index
     ----- ---------------------------- ---- --------- --- -----
     eH1_0                -1.815315e-01    1         1  ON     0
     eH1_1                -1.033513e-01    1         1  ON     1
     eH1_2                -6.278690e-02    1         1  ON     2
     eH1_3                -2.665635e-02    1         1  ON     3
     eH1_4                 1.894694e-02    1         1  ON     4
     eH1_5                 3.447160e-02    1         1  ON     5
     eH1_6                 7.840214e-02    1         1  ON     6
     eH1_7                 1.093415e-01    1         1  ON     7
     eH1_8                 9.261207e-02    1         1  ON     8
     eH1_9                 2.499365e-02    1         1  ON     9

    Radial function for element: H2
     Number of parameters: 10
     Cusp: 0.000000e+00
     Cutoff radius: 1.000000e+01

      Name                        Value Type Recompute Use Index
     ----- ---------------------------- ---- --------- --- -----
     eH2_0                -1.833813e-01    1         1  ON     0
     eH2_1                -1.046244e-01    1         1  ON     1
     eH2_2                -6.407604e-02    1         1  ON     2
     eH2_3                -2.758511e-02    1         1  ON     3
     eH2_4                 1.792720e-02    1         1  ON     4
     eH2_5                 3.386828e-02    1         1  ON     5
     eH2_6                 7.883749e-02    1         1  ON     6
     eH2_7                 1.133602e-01    1         1  ON     7
     eH2_8                 9.618838e-02    1         1  ON     8
     eH2_9                 2.707314e-02    1         1  ON     9

  Created SPOSet builder named 'LCAOBSet' of type molecularorbital
  LCAO: SoaAtomicBasisSet<MultiQuintic,0>
  AO BasisSet for O
   Angular momentum expanded in cartesian functions x^lx y^ly z^lz according to Gamess
Using log grid with default values: ri = 1.000000e-06 rf = 1.000000e+02 npts = 1001
   R(n,l,m,s) 0 0 0 0
   R(n,l,m,s) 1 0 0 0
   R(n,l,m,s) 2 1 0 0
   R(n,l,m,s) 3 1 0 0
   R(n,l,m,s) 4 2 0 0
Expanding Ylm (angular function) according to Gamess using cartesian gaussians
Adding 1 cartesian gaussian orbitals for l= 0
Adding 1 cartesian gaussian orbitals for l= 0
Adding 3 cartesian gaussian orbitals for l= 1
Adding 3 cartesian gaussian orbitals for l= 1
Adding 6 cartesian gaussian orbitals for l= 2
  Setting cutoff radius 1.018591e+01

   Maximum Angular Momentum  = 2
   Number of Radial functors = 5
   Basis size                = 14

  AO BasisSet for H1
   Angular momentum expanded in cartesian functions x^lx y^ly z^lz according to Gamess
Using log grid with default values: ri = 1.000000e-06 rf = 1.000000e+02 npts = 1001
   R(n,l,m,s) 0 0 0 0
   R(n,l,m,s) 1 0 0 0
   R(n,l,m,s) 2 1 0 0
Expanding Ylm (angular function) according to Gamess using cartesian gaussians
Adding 1 cartesian gaussian orbitals for l= 0
Adding 1 cartesian gaussian orbitals for l= 0
Adding 3 cartesian gaussian orbitals for l= 1
  Setting cutoff radius 1.270574e+01

   Maximum Angular Momentum  = 1
   Number of Radial functors = 3
   Basis size                = 5

  AO BasisSet for H2
   Angular momentum expanded in cartesian functions x^lx y^ly z^lz according to Gamess
Using log grid with default values: ri = 1.000000e-06 rf = 1.000000e+02 npts = 1001
   R(n,l,m,s) 0 0 0 0
   R(n,l,m,s) 1 0 0 0
   R(n,l,m,s) 2 1 0 0
Expanding Ylm (angular function) according to Gamess using cartesian gaussians
Adding 1 cartesian gaussian orbitals for l= 0
Adding 1 cartesian gaussian orbitals for l= 0
Adding 3 cartesian gaussian orbitals for l= 1
  Setting cutoff radius 1.270574e+01

   Maximum Angular Momentum  = 1
   Number of Radial functors = 3
   Basis size                = 5

Creating SPOSet in SlaterDetBuilder::put(xmlNodePtr cur).
spo_name = spo-up
  Building SPOSet 'spo-up' with '' basis set.
Creating SPOSet in SlaterDetBuilder::put(xmlNodePtr cur).
spo_name = spo-dn
  Building SPOSet 'spo-dn' with '' basis set.
Using Bryan's algorithm for MultiSlaterDeterminant expansion. 
Creating base determinant (up) for MSD expansion. 
Creating base determinant (down) for MSD expansion. 
Found determinant list. 
Reading CI expansion.
Found 70 terms in the MSD expansion.
Norm of ci vector (sum of ci^2): 9.704478e-01
Norm of qchem ci vector (sum of qchem_ci^2): 0.000000e+00
Found 26 unique up determinants.
Found 26 unique down determinants.
Number of terms in pairs array: 22
Number of terms in pairs array: 22
CI coefficients are not optimizable. 
  FermionWF = MultiSlaterDeterminantFast
  QMCHamiltonian::addOperator Kinetic to H, physical Hamiltonian 
  QMCHamiltonian::addOperator ElecElec to H, physical Hamiltonian 
QMCHamiltonian::addOperatorType added type coulomb named ElecElec

  ECPotential builder for pseudopotential 

  Adding pseudopotential for O
   Linear grid  ri=0.000000e+00 rf=1.000000e+01 npts = 10001
    ECPComponentBuilder::buildSemiLocalAndLocal 
    Assuming Hartree unit
   Number of angular momentum channels 2
   Maximum angular momentum channel 1
   Creating a Linear Grid Rmax=1.075000e+00
  Using global grid with delta = 1.000000e-03
   Making L=1 a local potential with a radial cutoff of 9.999000e+00
    Non-local pseudopotential parameters
    Maximum angular mementum = 0
    Number of non-local channels = 1
       l(0)=0
    Cutoff radius = 1.075000e+00
    Spherical grids and weights: 
         1.0000000000e+00  0.0000000000e+00  0.0000000000e+00    8.3333333333e-02
        -1.0000000000e+00  1.2246467991e-16  0.0000000000e+00    8.3333333333e-02
         4.4721359550e-01  8.9442719100e-01  0.0000000000e+00    8.3333333333e-02
        -4.4721359550e-01  7.2360679775e-01  5.2573111212e-01    8.3333333333e-02
         4.4721359550e-01  2.7639320225e-01  8.5065080835e-01    8.3333333333e-02
        -4.4721359550e-01 -2.7639320225e-01  8.5065080835e-01    8.3333333333e-02
         4.4721359550e-01 -7.2360679775e-01  5.2573111212e-01    8.3333333333e-02
        -4.4721359550e-01 -8.9442719100e-01  1.0953573965e-16    8.3333333333e-02
         4.4721359550e-01 -7.2360679775e-01 -5.2573111212e-01    8.3333333333e-02
        -4.4721359550e-01 -2.7639320225e-01 -8.5065080835e-01    8.3333333333e-02
         4.4721359550e-01  2.7639320225e-01 -8.5065080835e-01    8.3333333333e-02
        -4.4721359550e-01  7.2360679775e-01 -5.2573111212e-01    8.3333333333e-02
    Maximum cutoff radius 1.0750000000e+00

  Adding pseudopotential for H1
   Linear grid  ri=0.0000000000e+00 rf=1.0000000000e+01 npts = 10001
    ECPComponentBuilder::buildSemiLocalAndLocal 
    Assuming Hartree unit
   Number of angular momentum channels 2
   Maximum angular momentum channel 1
   Creating a Linear Grid Rmax=1.0000000000e-10
  Using global grid with delta = 1.0000000000e-03
   Making L=1 a local potential with a radial cutoff of 9.9990000000e+00
    Non-local pseudopotential parameters
    Maximum angular mementum = 0
    Number of non-local channels = 1
       l(0)=0
    Cutoff radius = 1.0000000000e-03
    Spherical grids and weights: 
         1.0000000000e+00  0.0000000000e+00  0.0000000000e+00    8.3333333333e-02
        -1.0000000000e+00  1.2246467991e-16  0.0000000000e+00    8.3333333333e-02
         4.4721359550e-01  8.9442719100e-01  0.0000000000e+00    8.3333333333e-02
        -4.4721359550e-01  7.2360679775e-01  5.2573111212e-01    8.3333333333e-02
         4.4721359550e-01  2.7639320225e-01  8.5065080835e-01    8.3333333333e-02
        -4.4721359550e-01 -2.7639320225e-01  8.5065080835e-01    8.3333333333e-02
         4.4721359550e-01 -7.2360679775e-01  5.2573111212e-01    8.3333333333e-02
        -4.4721359550e-01 -8.9442719100e-01  1.0953573965e-16    8.3333333333e-02
         4.4721359550e-01 -7.2360679775e-01 -5.2573111212e-01    8.3333333333e-02
        -4.4721359550e-01 -2.7639320225e-01 -8.5065080835e-01    8.3333333333e-02
         4.4721359550e-01  2.7639320225e-01 -8.5065080835e-01    8.3333333333e-02
        -4.4721359550e-01  7.2360679775e-01 -5.2573111212e-01    8.3333333333e-02
    Maximum cutoff radius 1.0000000000e-03

  Adding pseudopotential for H2
   Linear grid  ri=0.0000000000e+00 rf=1.0000000000e+01 npts = 10001
    ECPComponentBuilder::buildSemiLocalAndLocal 
    Assuming Hartree unit
   Number of angular momentum channels 2
   Maximum angular momentum channel 1
   Creating a Linear Grid Rmax=1.0000000000e-10
  Using global grid with delta = 1.0000000000e-03
   Making L=1 a local potential with a radial cutoff of 9.9990000000e+00
    Non-local pseudopotential parameters
    Maximum angular mementum = 0
    Number of non-local channels = 1
       l(0)=0
    Cutoff radius = 1.0000000000e-03
    Spherical grids and weights: 
         1.0000000000e+00  0.0000000000e+00  0.0000000000e+00    8.3333333333e-02
        -1.0000000000e+00  1.2246467991e-16  0.0000000000e+00    8.3333333333e-02
         4.4721359550e-01  8.9442719100e-01  0.0000000000e+00    8.3333333333e-02
        -4.4721359550e-01  7.2360679775e-01  5.2573111212e-01    8.3333333333e-02
         4.4721359550e-01  2.7639320225e-01  8.5065080835e-01    8.3333333333e-02
        -4.4721359550e-01 -2.7639320225e-01  8.5065080835e-01    8.3333333333e-02
         4.4721359550e-01 -7.2360679775e-01  5.2573111212e-01    8.3333333333e-02
        -4.4721359550e-01 -8.9442719100e-01  1.0953573965e-16    8.3333333333e-02
         4.4721359550e-01 -7.2360679775e-01 -5.2573111212e-01    8.3333333333e-02
        -4.4721359550e-01 -2.7639320225e-01 -8.5065080835e-01    8.3333333333e-02
         4.4721359550e-01  2.7639320225e-01 -8.5065080835e-01    8.3333333333e-02
        -4.4721359550e-01  7.2360679775e-01 -5.2573111212e-01    8.3333333333e-02
    Maximum cutoff radius 1.0000000000e-03
  QMCHamiltonian::addOperator LocalECP to H, physical Hamiltonian 

  Using NonLocalECP potential 
    Maximum grid on a sphere for NonLocalECPotential: 12
  QMCHamiltonian::addOperator NonLocalECP to H, physical Hamiltonian 
QMCHamiltonian::addOperatorType added type pseudo named NonLocalECP
  QMCHamiltonian::addOperator IonIon to H, physical Hamiltonian 
QMCHamiltonian::addOperatorType added type coulomb named IonIon

  QMCHamiltonian::add2WalkerProperty added
    5 to P::PropertyList 
    0 to P::Collectables 
    starting Index of the observables in P::PropertyList = 10
ParticleSetPool::randomize 
  Initialization Execution time = 1.7181e+00 secs
=========================================================
 Summary of QMC systems 
=========================================================
ParticleSetPool has: 

  ParticleSet 'e' contains 8 particles :  u(4) d(4)

    u -2.1647635618e-01 -6.7439216895e-01  1.9880537318e-01
    u -8.6004520714e-01 -3.1964226924e-01  6.9171823675e-02
    u -1.1165451895e+00 -5.3850544216e-01 -4.9152162246e-01
    u -4.0992137844e-01  2.3431241626e+00  1.4534834924e+00
    d -6.4716027047e-02 -8.0296334917e-01 -7.3676750950e-01
    d -4.9793133381e-01 -5.0450915047e-01 -7.6892777308e-01
    d  1.5908260425e-01  3.7531282770e-01 -1.4289189837e-01
    d -1.4507602779e-01 -1.2740118097e+00  2.0922709319e-01

  Distance table for similar particles (A-A):
    source/target: e
    Using structure-of-arrays (SoA) data layout
    Distance computations use open boundary conditions in 3D.

  Distance table for dissimilar particles (A-B):
    source: ion0  target: e
    Using structure-of-arrays (SoA) data layout
    Distance computations use open boundary conditions in 3D.


  ParticleSet 'ion0' contains 3 particles :  O(1) H1(1) H2(1)

    O  0.0000000000e+00  0.0000000000e+00 -1.3209751581e-01
    H1  0.0000000000e+00  1.4315279079e+00  9.7970009311e-01
    H2  0.0000000000e+00 -1.4315279079e+00  9.7970009311e-01

  Distance table for similar particles (A-A):
    source/target: ion0
    Using structure-of-arrays (SoA) data layout
    Distance computations use open boundary conditions in 3D.


  Hamiltonian h0
  Kinetic         Kinetic energy
  ElecElec        CoulombAA source/target e

  LocalECP        LocalECPotential: ion0
  NonLocalECP     NonLocalECPotential: ion0
  IonIon          CoulombAA source/target ion0


Loop execution max-interations = 40
Inside LM engine constructor, num_params is: 0 and _total_num_params is: 0

=========================================================
  Start QMCFixedSampleLinearOptimize
  File Root H2O.s000 append = no 
=========================================================
  Skip QMCDriver::putQMCInfo 
  Resetting Properties of the walkers 1 x 15
  Adding 1 walkers to 0 existing sets
  Total number of walkers: 1.2800000000e+02
  Total weight: 1.2800000000e+02

=========================================================
  Start VMC
  File Root H2O.s000 append = no 
=========================================================
Resetting walkers
  Using the current 1 walkers.
  Total number of walkers: 1.2800000000e+02
  Total weight: 1.2800000000e+02
  Resetting Properties of the walkers 1 x 15

<vmc function="put">
  qmc_counter=0  my_counter=0
  time step      = 5.0000000000e-02
  blocks         = 125
  steps          = 125
  substeps       = 10
  current        = 0
  target samples = 2.0000000000e+06
  walkers/mpi    = 1

  stepsbetweensamples = 1
<parameter name="blocks" condition="int">125</parameter>
<parameter name="blocks_between_recompute" condition="int">0</parameter>
<parameter name="check_properties" condition="int">100</parameter>
<parameter name="checkproperties" condition="int">100</parameter>
<parameter name="current" condition="int">0</parameter>
<parameter name="dmcwalkersperthread" condition="real">1.5625000000e+04</parameter>
<parameter name="fermionicweight" condition="real">1.0000000000e-04</parameter>
<parameter name="jastrowweight" condition="real">0.0000000000e+00</parameter>
<parameter name="maxcpusecs" condition="real">3.6000000000e+05</parameter>
<parameter name="mg_beta" condition="real">0.0000000000e+00</parameter>
<parameter name="mg_gamma" condition="real">0.0000000000e+00</parameter>
<parameter name="modifiedguiding" condition="string">ParameterDerivativeAdjusted</parameter>
<parameter name="orboptweight" condition="real">0.0000000000e+00</parameter>
<parameter name="record_configs" condition="int">0</parameter>
<parameter name="record_walkers" condition="int">1</parameter>
<parameter name="recordconfigs" condition="int">0</parameter>
<parameter name="recordwalkers" condition="int">1</parameter>
<parameter name="rewind" condition="int">0</parameter>
<parameter name="samples" condition="real">2.0000000000e+06</parameter>
<parameter name="samplesperthread" condition="real">1.5625000000e+04</parameter>
<parameter name="steps" condition="int">125</parameter>
<parameter name="stepsbetweensamples" condition="int">1</parameter>
<parameter name="store_configs" condition="int">0</parameter>
<parameter name="storeconfigs" condition="int">0</parameter>
<parameter name="sub_steps" condition="int">10</parameter>
<parameter name="substeps" condition="int">10</parameter>
<parameter name="tau" condition="au">5.0000000000e-02</parameter>
<parameter name="time_step" condition="au">5.0000000000e-02</parameter>
<parameter name="timestep" condition="au">5.0000000000e-02</parameter>
<parameter name="use_drift" condition="string">no</parameter>
<parameter name="usedrift" condition="string">no</parameter>
<parameter name="walkers" condition="int">1</parameter>
<parameter name="warmup_steps" condition="int">1000</parameter>
<parameter name="warmupsteps" condition="int">1000</parameter>
  DumpConfig==false Nothing (configurations, state) will be saved.
  Walker Samples are dumped every 1 steps.
</vmc>
  Set drift_modifier UNR parameter a = 1.0000000000e+00
  EstimatorManagerBase::add replace LocalEnergy estimator.
 Using QMCCostFunction::QMCCostFunction
   Going to include the derivatives of NonLocalECP
 Using Default Cost Function: Cost = <|E-E_ff|^2>
  Set drift_modifier UNR parameter a = 1.0000000000e+00
  EstimatorManagerBase::add replace LocalEnergy estimator.
Double check: filter_param_: 0 and ratio_threshold_: 0.0000000000e+00
Allocating full size _hmat_temp and _smat_temp
Inside LM engine's get_param, num_params is: 50
Now doing initialize, nblock: 1, nkeps: 1
Start of engine's reset
Before block part of reset
end of engine's reset
entering engine_start function
<optimization-report>
<vmc stage="main" blocks="125">
  Initial partition of walkers 0 1 
Using ParameterDeriv Adjusted Guiding Function

  Using Particle by Particle moves
  Walker moves without drift
  Total Sample Size   =2000000
  Walker distribution on root = 0 1 
  Using Locality Approximation
  Anonymous Buffer size per walker : 16008 Bytes.
MEMORY increase 0 MB VMC::resetRun
====================================================
  SimpleFixedNodeBranch::finalize after a VMC block
    QMC counter        = 0
    time step          = 0.05
    reference energy   = -17.2836
    reference variance = 0.263941
====================================================
  Execution time = 2.1048e+01
</vmc>
<opt stage="setup">
  <log>
     Reading configurations from h5FileRoot H2O.s000
  QMCCostFunction is created with 1 threads.
  Using Nonlocal PP in Opt: NonLocalECP
   Number of samples loaded to each thread : 15625 
Value of Filter Bool: false before_first_block_sample: true onDescentStep: false
Before engine_checkConfigurations
Double check filter inside engine_checkConfig: false
 w_tot 1.5625e+04
  VMC Eavg = -1.7216e+01
  VMC Evar = 3.0815e-01
  Total weights = 2.000000000e+06
Before sample_finish
calling setComputed function
After engine_checkConfig
  Execution time = 5.4294e+00
  </log>
</opt>
<opt stage="main" walkers="15625">
  <log>
Restored printouts from recurive_blocking in energy_target_accu

Crude block analysis of variance gives:     variance =       0.308141859896
                                         uncertainty =       0.003882415223

Now for a blocking analysis of energy uncertainty:

energy and target function accumulation statistics:


Restored printouts from recurive_blocking in energy_target_accu

Crude block analysis of variance gives:     variance =       0.308141859896
                                         uncertainty =       0.003882415223

Now for a blocking analysis of energy uncertainty:

  error estimate for blocks of size 2^( 1) =       0.000392521472
  error estimate for blocks of size 2^( 2) =       0.000402171003
  error estimate for blocks of size 2^( 3) =       0.000411670172
  error estimate for blocks of size 2^( 4) =       0.000417929838
  error estimate for blocks of size 2^( 5) =       0.000421529116
  error estimate for blocks of size 2^( 6) =       0.000423487102
  error estimate for blocks of size 2^( 7) =       0.000423948492

      target function =                  N/A
              le_mean =     -17.216240477803
             les_mean =     296.707082247901
             stat err =       0.000421723637
             autocorr =       1.154327515805
              std dev =       0.555109189634
             le_variance =       0.308146212416


*************************************************************************************************
Solving the linear method equations on the initial sample with initial energy-1.721624047780e+01 
*************************************************************************************************


*********************************************************
Solving the linear method equations on the initial sample
*********************************************************

Inside this version of call_engine, dep_ptr->n_tot(): 50
Check correct_vf_var_size: 153, current size: 0
Inside version of engine_update_build_matrix that takes matrices hh and ss as input
solving harmonic davidson linear method for identity shift 2.5000e-01, overlap shift 2.5000e+00 and omega 0.0000e+00

iteration solving starts here(engine) 


davidson iteration    0:   krylov dim =   1   energy =     -17.216240477803       residual = 1.63e-04           smallest_sin_value = 1.00e+00
davidson iteration    1:   krylov dim =   2   energy =     -17.216262094979       residual = 7.88e-05           smallest_sin_value = 1.00e+00
davidson iteration    2:   krylov dim =   3   energy =     -17.216268379492       residual = 3.76e-05           smallest_sin_value = 1.00e+00
davidson iteration    3:   krylov dim =   4   energy =     -17.216272679066       residual = 1.77e-05           smallest_sin_value = 1.00e+00
davidson iteration    4:   krylov dim =   5   energy =     -17.216280382693       residual = 4.96e-06           smallest_sin_value = 1.00e+00
davidson iteration    5:   krylov dim =   6   energy =     -17.216284208719       residual = 3.29e-06           smallest_sin_value = 1.00e+00
davidson iteration    6:   krylov dim =   7   energy =     -17.216283805377       residual = 1.04e-06           smallest_sin_value = 1.00e+00
davidson iteration    7:   krylov dim =   8   energy =     -17.216282897536       residual = 1.78e-07           smallest_sin_value = 1.00e+00
davidson iteration    8:   krylov dim =   9   energy =     -17.216284387804       residual = 9.75e-08           smallest_sin_value = 1.00e+00
davidson iteration    9:   krylov dim =  10   energy =     -17.216284130355       residual = 4.85e-08           smallest_sin_value = 1.00e+00
davidson iteration   10:   krylov dim =  11   energy =     -17.216284369082       residual = 1.43e-08           smallest_sin_value = 1.00e+00
davidson iteration   11:   krylov dim =  12   energy =     -17.216284094416       residual = 3.31e-09           smallest_sin_value = 1.00e+00
davidson solver converged in         11 iterations

On rank 0, check n_tot: 51 and evec_eigen.size(): 51
The largest weight on the derivative vector for shift 2.5000e-01 is 4.133516e-03

solving harmonic davidson linear method for identity shift 1.0000e+00, overlap shift 1.0000e+01 and omega 0.0000e+00

iteration solving starts here(engine) 


davidson iteration    0:   krylov dim =   1   energy =     -17.216240477803       residual = 1.63e-04           smallest_sin_value = 1.00e+00
davidson iteration    1:   krylov dim =   2   energy =     -17.216250017063       residual = 9.35e-05           smallest_sin_value = 1.00e+00
davidson iteration    2:   krylov dim =   3   energy =     -17.216252820377       residual = 4.53e-05           smallest_sin_value = 1.00e+00
davidson iteration    3:   krylov dim =   4   energy =     -17.216255117437       residual = 1.43e-05           smallest_sin_value = 1.00e+00
davidson iteration    4:   krylov dim =   5   energy =     -17.216258109783       residual = 3.03e-06           smallest_sin_value = 1.00e+00
davidson iteration    5:   krylov dim =   6   energy =     -17.216258816193       residual = 1.19e-06           smallest_sin_value = 1.00e+00
davidson iteration    6:   krylov dim =   7   energy =     -17.216258686419       residual = 3.09e-07           smallest_sin_value = 1.00e+00
davidson iteration    7:   krylov dim =   8   energy =     -17.216258774353       residual = 5.34e-08           smallest_sin_value = 1.00e+00
davidson iteration    8:   krylov dim =   9   energy =     -17.216258618857       residual = 1.60e-08           smallest_sin_value = 1.00e+00
davidson iteration    9:   krylov dim =  10   energy =     -17.216258760052       residual = 4.30e-09           smallest_sin_value = 1.00e+00
davidson solver converged in          9 iterations

On rank 0, check n_tot: 51 and evec_eigen.size(): 51
The largest weight on the derivative vector for shift 1.0000e+00 is 1.276972e-03

solving harmonic davidson linear method for identity shift 4.0000e+00, overlap shift 4.0000e+01 and omega 0.0000e+00

iteration solving starts here(engine) 


davidson iteration    0:   krylov dim =   1   energy =     -17.216240477803       residual = 1.63e-04           smallest_sin_value = 1.00e+00
davidson iteration    1:   krylov dim =   2   energy =     -17.216243426682       residual = 1.03e-04           smallest_sin_value = 1.00e+00
davidson iteration    2:   krylov dim =   3   energy =     -17.216244318765       residual = 5.15e-05           smallest_sin_value = 1.00e+00
davidson iteration    3:   krylov dim =   4   energy =     -17.216245126063       residual = 1.33e-05           smallest_sin_value = 1.00e+00
davidson iteration    4:   krylov dim =   5   energy =     -17.216246053001       residual = 2.35e-06           smallest_sin_value = 1.00e+00
davidson iteration    5:   krylov dim =   6   energy =     -17.216246072955       residual = 5.45e-07           smallest_sin_value = 1.00e+00
davidson iteration    6:   krylov dim =   7   energy =     -17.216246122496       residual = 1.62e-07           smallest_sin_value = 1.00e+00
davidson iteration    7:   krylov dim =   8   energy =     -17.216246144536       residual = 2.44e-08           smallest_sin_value = 1.00e+00
davidson iteration    8:   krylov dim =   9   energy =     -17.216246111706       residual = 6.05e-09           smallest_sin_value = 1.00e+00
davidson solver converged in          8 iterations

On rank 0, check n_tot: 51 and evec_eigen.size(): 51
The largest weight on the derivative vector for shift 4.0000e+00 is 3.434899e-04

About to broadcast update vector

Printing all timers used during this execution:
  eigen solver                               0.119865 seconds

After print_timers
After EngineObj->wfn_update_compute(), N is: 51 and numParams is: 50

************************************************************
Updating the guiding function with the middle shift's update
************************************************************

  Execution time = 2.6602e+01
  </log>
  <optVariables href="H2O.s000.opt.xml">
uu_0  2.099265e-01                 1 1 ON  0
uu_1  4.820608e-02                 1 1 ON  1
uu_2  -4.529534e-02                1 1 ON  2
uu_3  -9.943619e-02                1 1 ON  3
uu_4  -1.324533e-01                1 1 ON  4
uu_5  -1.385913e-01                1 1 ON  5
uu_6  -1.151056e-01                1 1 ON  6
uu_7  -4.267247e-02                1 1 ON  7
uu_8  9.769713e-02                 1 1 ON  8
uu_9  1.226043e-01                 1 1 ON  9
ud_0  3.473140e-01                 1 1 ON  10
ud_1  9.148068e-02                 1 1 ON  11
ud_2  -1.401704e-02                1 1 ON  12
ud_3  -7.237379e-02                1 1 ON  13
ud_4  -1.201301e-01                1 1 ON  14
ud_5  -1.534496e-01                1 1 ON  15
ud_6  -1.557888e-01                1 1 ON  16
ud_7  -1.108620e-01                1 1 ON  17
ud_8  1.286118e-03                 1 1 ON  18
ud_9  9.244208e-02                 1 1 ON  19
eO_0  -7.574448e-01                1 1 ON  20
eO_1  -4.434170e-01                1 1 ON  21
eO_2  -4.457282e-02                1 1 ON  22
eO_3  2.050092e-01                 1 1 ON  23
eO_4  2.981780e-01                 1 1 ON  24
eO_5  3.142310e-01                 1 1 ON  25
eO_6  2.540183e-01                 1 1 ON  26
eO_7  1.159828e-01                 1 1 ON  27
eO_8  2.854942e-02                 1 1 ON  28
eO_9  1.862791e-02                 1 1 ON  29
eH1_0 -1.816445e-01                1 1 ON  30
eH1_1 -1.032907e-01                1 1 ON  31
eH1_2 -6.286410e-02                1 1 ON  32
eH1_3 -2.656695e-02                1 1 ON  33
eH1_4 1.899250e-02                 1 1 ON  34
eH1_5 3.435518e-02                 1 1 ON  35
eH1_6 7.841515e-02                 1 1 ON  36
eH1_7 1.093544e-01                 1 1 ON  37
eH1_8 9.267822e-02                 1 1 ON  38
eH1_9 2.500662e-02                 1 1 ON  39
eH2_0 -1.834698e-01                1 1 ON  40
eH2_1 -1.046583e-01                1 1 ON  41
eH2_2 -6.409862e-02                1 1 ON  42
eH2_3 -2.746170e-02                1 1 ON  43
eH2_4 1.798190e-02                 1 1 ON  44
eH2_5 3.381222e-02                 1 1 ON  45
eH2_6 7.877190e-02                 1 1 ON  46
eH2_7 1.133295e-01                 1 1 ON  47
eH2_8 9.627208e-02                 1 1 ON  48
eH2_9 2.710039e-02                 1 1 ON  49
  </optVariables>
eH1
Array
eH2
Array
eO
Array
ud
Array
uu
Array
   Restore the number of walkers to 1, removing 0 walkers.
</opt>
</optimization-report>

*************************************************************
Generating a new sample based on the updated guiding function
*************************************************************

<optimization-report>
<vmc stage="main" blocks="125">
  Cannot make clones again. Use existing 1 clones
  Initial partition of walkers 0 1 
  Using Particle by Particle moves
  Walker moves without drift
  Total Sample Size   =2000000
  Walker distribution on root = 0 1 
  Using Locality Approximation
====================================================
  SimpleFixedNodeBranch::finalize after a VMC block
    QMC counter        = 0
    time step          = 0.05
    reference energy   = -17.2103
    reference variance = 0.283777
====================================================
  Execution time = 2.0115e+01
</vmc>
<opt stage="setup">
  <log>
   Reading configurations from h5FileRoot H2O.s000
  Using Nonlocal PP in Opt: NonLocalECP
   Number of samples loaded to each thread : 15625 
  VMC Eavg = -1.7217e+01
  VMC Evar = 3.2110e-01
  Total weights = 2.0000e+06
  Execution time = 1.8245e+00
  </log>
</opt>
<opt stage="main" walkers="15625">
  <log>

******************************************************************
Comparing different shifts' cost function values on updated sample
******************************************************************

Start of engine's reset
Before block part of reset
end of engine's reset
Restored printouts from recurive_blocking in energy_target_accu

Crude block analysis of variance gives:     variance =       0.320279296173
                                         uncertainty =       0.004695091199

Now for a blocking analysis of energy uncertainty:

energy and target function accumulation statistics:


Restored printouts from recurive_blocking in energy_target_accu

Crude block analysis of variance gives:     variance =       0.320279296173
                                         uncertainty =       0.004695091199

Now for a blocking analysis of energy uncertainty:

  error estimate for blocks of size 2^( 1) =       0.000400131399
  error estimate for blocks of size 2^( 2) =       0.000410305762
  error estimate for blocks of size 2^( 3) =       0.000419135746
  error estimate for blocks of size 2^( 4) =       0.000425342833
  error estimate for blocks of size 2^( 5) =       0.000429784872
  error estimate for blocks of size 2^( 6) =       0.000431746004
  error estimate for blocks of size 2^( 7) =       0.000433738290

      target function =                  N/A
              le_mean =     -17.216911263160
             les_mean =     296.742243556731
             stat err =       0.000430153000
             autocorr =       1.155688112420
              std dev =       0.565871251542
             le_variance =       0.320210273322

Start of engine's reset
Before block part of reset
end of engine's reset
Restored printouts from recurive_blocking in energy_target_accu

Crude block analysis of variance gives:     variance =       0.322665551651
                                         uncertainty =       0.004715597280

Now for a blocking analysis of energy uncertainty:

energy and target function accumulation statistics:


Restored printouts from recurive_blocking in energy_target_accu

Crude block analysis of variance gives:     variance =       0.322665551651
                                         uncertainty =       0.004715597280

Now for a blocking analysis of energy uncertainty:

  error estimate for blocks of size 2^( 1) =       0.000401619297
  error estimate for blocks of size 2^( 2) =       0.000411685018
  error estimate for blocks of size 2^( 3) =       0.000420413878
  error estimate for blocks of size 2^( 4) =       0.000426514257
  error estimate for blocks of size 2^( 5) =       0.000430913693
  error estimate for blocks of size 2^( 6) =       0.000432853980
  error estimate for blocks of size 2^( 7) =       0.000434832779

      target function =                  N/A
              le_mean =     -17.216916029421
             les_mean =     296.744793521956
             stat err =       0.000431278677
             autocorr =       1.153152727364
              std dev =       0.567975456429
             le_variance =       0.322596119106

Start of engine's reset
Before block part of reset
end of engine's reset
Restored printouts from recurive_blocking in energy_target_accu

Crude block analysis of variance gives:     variance =       0.322116602538
                                         uncertainty =       0.004708230216

Now for a blocking analysis of energy uncertainty:

energy and target function accumulation statistics:


Restored printouts from recurive_blocking in energy_target_accu

Crude block analysis of variance gives:     variance =       0.322116602538
                                         uncertainty =       0.004708230216

Now for a blocking analysis of energy uncertainty:

  error estimate for blocks of size 2^( 1) =       0.000401277545
  error estimate for blocks of size 2^( 2) =       0.000411362685
  error estimate for blocks of size 2^( 3) =       0.000420110418
  error estimate for blocks of size 2^( 4) =       0.000426229930
  error estimate for blocks of size 2^( 5) =       0.000430634193
  error estimate for blocks of size 2^( 6) =       0.000432572047
  error estimate for blocks of size 2^( 7) =       0.000434550995

      target function =                  N/A
              le_mean =     -17.216913279622
             les_mean =     296.744150053350
             stat err =       0.000430996791
             autocorr =       1.153608261691
              std dev =       0.567492146505
             le_variance =       0.322047336345

Start of engine's reset
Before block part of reset
end of engine's reset
Restored printouts from recurive_blocking in energy_target_accu

Crude block analysis of variance gives:     variance =       0.320534018092
                                         uncertainty =       0.004696717692

Now for a blocking analysis of energy uncertainty:

energy and target function accumulation statistics:


Restored printouts from recurive_blocking in energy_target_accu

Crude block analysis of variance gives:     variance =       0.320534018092
                                         uncertainty =       0.004696717692

Now for a blocking analysis of energy uncertainty:

  error estimate for blocks of size 2^( 1) =       0.000400290500
  error estimate for blocks of size 2^( 2) =       0.000410450424
  error estimate for blocks of size 2^( 3) =       0.000419267281
  error estimate for blocks of size 2^( 4) =       0.000425460815
  error estimate for blocks of size 2^( 5) =       0.000429896764
  error estimate for blocks of size 2^( 6) =       0.000431853790
  error estimate for blocks of size 2^( 7) =       0.000433843781

      target function =                  N/A
              le_mean =     -17.216909449199
             les_mean =     296.742435789714
             stat err =       0.000430263787
             autocorr =       1.155364517888
              std dev =       0.566096253317
             le_variance =       0.320464968019


        shift_i        shift_s       max param change    cost function value
   ------------   ------------   --------------------   --------------------
            N/A            N/A                    N/A       -17.216911263160        initial
     2.5000e-01     2.5000e+00             4.1335e-03       -17.216916029421  <--
     1.0000e+00     1.0000e+01             1.2770e-03       -17.216913279622
     4.0000e+00     4.0000e+01             3.4349e-04       -17.216909449199

*****************************************************************************
Applying the update for shift_i =   2.5000e-01     and shift_s =   2.5000e+00
*****************************************************************************

  Execution time = 2.9347e+01
  </log>
  <optVariables href="H2O.s000.opt.xml">
 uu_0                 2.103164e-01 1 1  ON 0
 uu_1                 4.842802e-02 1 1  ON 1
 uu_2                -4.536964e-02 1 1  ON 2
 uu_3                -9.952184e-02 1 1  ON 3
 uu_4                -1.324427e-01 1 1  ON 4
 uu_5                -1.388070e-01 1 1  ON 5
 uu_6                -1.152545e-01 1 1  ON 6
 uu_7                -4.294694e-02 1 1  ON 7
 uu_8                 9.747403e-02 1 1  ON 8
 uu_9                 1.227696e-01 1 1  ON 9
 ud_0                 3.489758e-01 1 1  ON 10
 ud_1                 9.226703e-02 1 1  ON 11
 ud_2                -1.458112e-02 1 1  ON 12
 ud_3                -7.345734e-02 1 1  ON 13
 ud_4                -1.206669e-01 1 1  ON 14
 ud_5                -1.533691e-01 1 1  ON 15
 ud_6                -1.558230e-01 1 1  ON 16
 ud_7                -1.110395e-01 1 1  ON 17
 ud_8                 9.412121e-04 1 1  ON 18
 ud_9                 9.244207e-02 1 1  ON 19
 eO_0                -7.603014e-01 1 1  ON 20
 eO_1                -4.449594e-01 1 1  ON 21
 eO_2                -4.367064e-02 1 1  ON 22
 eO_3                 2.064325e-01 1 1  ON 23
 eO_4                 2.992207e-01 1 1  ON 24
 eO_5                 3.145742e-01 1 1  ON 25
 eO_6                 2.542805e-01 1 1  ON 26
 eO_7                 1.163056e-01 1 1  ON 27
 eO_8                 2.860080e-02 1 1  ON 28
 eO_9                 1.865716e-02 1 1  ON 29
eH1_0                -1.819136e-01 1 1  ON 30
eH1_1                -1.033139e-01 1 1  ON 31
eH1_2                -6.293190e-02 1 1  ON 32
eH1_3                -2.643202e-02 1 1  ON 33
eH1_4                 1.902887e-02 1 1  ON 34
eH1_5                 3.411489e-02 1 1  ON 35
eH1_6                 7.851926e-02 1 1  ON 36
eH1_7                 1.094144e-01 1 1  ON 37
eH1_8                 9.288427e-02 1 1  ON 38
eH1_9                 2.504679e-02 1 1  ON 39
eH2_0                -1.837126e-01 1 1  ON 40
eH2_1                -1.047961e-01 1 1  ON 41
eH2_2                -6.407796e-02 1 1  ON 42
eH2_3                -2.725667e-02 1 1  ON 43
eH2_4                 1.806237e-02 1 1  ON 44
eH2_5                 3.372036e-02 1 1  ON 45
eH2_6                 7.864322e-02 1 1  ON 46
eH2_7                 1.132568e-01 1 1  ON 47
eH2_8                 9.653077e-02 1 1  ON 48
eH2_9                 2.718411e-02 1 1  ON 49
  </optVariables>
eH1
Array
eH2
Array
eO
Array
ud
Array
uu
Array
   Restore the number of walkers to 1, removing 0 walkers.
</opt>
</optimization-report>
  QMC Execution time = 5.6017e+01 secs
  Reusing QMCFixedSampleLinearOptimize
 Using QMCCostFunction::QMCCostFunction
   Going to include the derivatives of NonLocalECP
 Using Default Cost Function: Cost = <|E-E_ff|^2>

=========================================================
  Start QMCFixedSampleLinearOptimize
  File Root H2O.s001 append = no 
=========================================================
  Skip QMCDriver::putQMCInfo 
  Resetting Properties of the walkers 1 x 15

=========================================================
  Start VMC
  File Root H2O.s001 append = no 
=========================================================
Using existing walkers 
  Resetting Properties of the walkers 1 x 15

<vmc function="put">
  qmc_counter=1  my_counter=0
  time step      = 5.0000e-02
  blocks         = 125
  steps          = 125
  substeps       = 10
  current        = 0
  target samples = 2.0000e+06
  walkers/mpi    = 1

  stepsbetweensamples = 1
<parameter name="blocks" condition="int">125</parameter>
<parameter name="blocks_between_recompute" condition="int">0</parameter>
<parameter name="check_properties" condition="int">100</parameter>
<parameter name="checkproperties" condition="int">100</parameter>
<parameter name="current" condition="int">0</parameter>
<parameter name="dmcwalkersperthread" condition="real">1.5625e+04</parameter>
<parameter name="fermionicweight" condition="real">1.0000e-04</parameter>
<parameter name="jastrowweight" condition="real">0.0000e+00</parameter>
<parameter name="maxcpusecs" condition="real">3.6000e+05</parameter>
<parameter name="mg_beta" condition="real">0.0000e+00</parameter>
<parameter name="mg_gamma" condition="real">0.0000e+00</parameter>
<parameter name="modifiedguiding" condition="string">ParameterDerivativeAdjusted</parameter>
<parameter name="orboptweight" condition="real">0.0000e+00</parameter>
<parameter name="record_configs" condition="int">0</parameter>
<parameter name="record_walkers" condition="int">1</parameter>
<parameter name="recordconfigs" condition="int">0</parameter>
<parameter name="recordwalkers" condition="int">1</parameter>
<parameter name="rewind" condition="int">0</parameter>
<parameter name="samples" condition="real">2.0000e+06</parameter>
<parameter name="samplesperthread" condition="real">1.5625e+04</parameter>
<parameter name="steps" condition="int">125</parameter>
<parameter name="stepsbetweensamples" condition="int">1</parameter>
<parameter name="store_configs" condition="int">0</parameter>
<parameter name="storeconfigs" condition="int">0</parameter>
<parameter name="sub_steps" condition="int">10</parameter>
<parameter name="substeps" condition="int">10</parameter>
<parameter name="tau" condition="au">5.0000e-02</parameter>
<parameter name="time_step" condition="au">5.0000e-02</parameter>
<parameter name="timestep" condition="au">5.0000e-02</parameter>
<parameter name="use_drift" condition="string">no</parameter>
<parameter name="usedrift" condition="string">no</parameter>
<parameter name="walkers" condition="int">1</parameter>
<parameter name="warmup_steps" condition="int">1000</parameter>
<parameter name="warmupsteps" condition="int">1000</parameter>
  DumpConfig==false Nothing (configurations, state) will be saved.
  Walker Samples are dumped every 1 steps.
</vmc>
    Restarting, cummulative properties:
      energy     = -1.7247e+01
      variance   = 0.0000e+00
      r2accepted = 1.0000e-10
      r2proposed = 1.0000e-10
  Set drift_modifier UNR parameter a = 1.0000e+00
  EstimatorManagerBase::add replace LocalEnergy estimator.
 Using QMCCostFunction::QMCCostFunction
   Going to include the derivatives of NonLocalECP
 Using Default Cost Function: Cost = <|E-E_ff|^2>
  Set drift_modifier UNR parameter a = 1.0000e+00
  EstimatorManagerBase::add replace LocalEnergy estimator.
  EstimatorManagerBase::add replace LocalEnergy estimator.
Double check: filter_param_: false and ratio_threshold_: 0.0000e+00
Now doing initialize, nblock: 1, nkeps: 1
Start of engine's reset
Before block part of reset
end of engine's reset
entering engine_start function
<optimization-report>
<vmc stage="main" blocks="125">
  Cannot make clones again. Use existing 1 clones
  Initial partition of walkers 0 1 
Using ParameterDeriv Adjusted Guiding Function

  Using Particle by Particle moves
  Walker moves without drift
  Total Sample Size   =2000000
  Walker distribution on root = 0 1 
  Using Locality Approximation
  Anonymous Buffer size per walker : 16008 Bytes.
MEMORY increase 0 MB VMC::resetRun
====================================================
  SimpleFixedNodeBranch::finalize after a VMC block
    QMC counter        = 1
    time step          = 0.05
    reference energy   = -17.1918
    reference variance = 0.293356
====================================================
  Execution time = 2.0308e+01
</vmc>
<opt stage="setup">
  <log>
     Reading configurations from h5FileRoot H2O.s001
  QMCCostFunction is created with 1 threads.
  Using Nonlocal PP in Opt: NonLocalECP
   Number of samples loaded to each thread : 15625 
Value of Filter Bool: false before_first_block_sample: true onDescentStep: false
Before engine_checkConfigurations
Double check filter inside engine_checkConfig: false
 w_tot 1.5625e+04
  VMC Eavg = -1.7217e+01
  VMC Evar = 3.1664e-01
  Total weights = 2.000000000e+06
Before sample_finish
calling setComputed function
After engine_checkConfig
  Execution time = 5.5557e+00
  </log>
</opt>
<opt stage="main" walkers="15625">
  <log>
Restored printouts from recurive_blocking in energy_target_accu

Crude block analysis of variance gives:     variance =       0.316670913644
                                         uncertainty =       0.004534022361

Now for a blocking analysis of energy uncertainty:

energy and target function accumulation statistics:


Restored printouts from recurive_blocking in energy_target_accu

Crude block analysis of variance gives:     variance =       0.316670913644
                                         uncertainty =       0.004534022361

Now for a blocking analysis of energy uncertainty:

  error estimate for blocks of size 2^( 1) =       0.000397893721
  error estimate for blocks of size 2^( 2) =       0.000407265068
  error estimate for blocks of size 2^( 3) =       0.000416189187
  error estimate for blocks of size 2^( 4) =       0.000421740411
  error estimate for blocks of size 2^( 5) =       0.000426044236
  error estimate for blocks of size 2^( 6) =       0.000427450427
  error estimate for blocks of size 2^( 7) =       0.000428070641

      target function =                  N/A
              le_mean =     -17.217146908395
             les_mean =     296.746786333283
             stat err =       0.000425826429
             autocorr =       1.145331098471
              std dev =       0.562706696566
             le_variance =       0.316638826360


*************************************************************************************************
Solving the linear method equations on the initial sample with initial energy -1.721714690839e+01
*************************************************************************************************


*********************************************************
Solving the linear method equations on the initial sample
*********************************************************

Inside this version of call_engine, dep_ptr->n_tot(): 50
Check correct_vf_var_size: 153, current size: 0
Inside version of engine_update_build_matrix that takes matrices hh and ss as input
solving harmonic davidson linear method for identity shift 6.2500e-02, overlap shift 6.2500e-01 and omega 0.0000e+00

iteration solving starts here(engine) 


davidson iteration    0:   krylov dim =   1   energy =     -17.217146908395       residual = 1.93e-05           smallest_sin_value = 1.00e+00
davidson iteration    1:   krylov dim =   2   energy =     -17.217156640793       residual = 1.62e-05           smallest_sin_value = 1.00e+00
davidson iteration    2:   krylov dim =   3   energy =     -17.217156379676       residual = 9.54e-06           smallest_sin_value = 1.00e+00
davidson iteration    3:   krylov dim =   4   energy =     -17.217160557453       residual = 1.19e-05           smallest_sin_value = 1.00e+00
davidson iteration    4:   krylov dim =   5   energy =     -17.217163593024       residual = 3.98e-06           smallest_sin_value = 1.00e+00
davidson iteration    5:   krylov dim =   6   energy =     -17.217166228879       residual = 4.23e-06           smallest_sin_value = 1.00e+00
davidson iteration    6:   krylov dim =   7   energy =     -17.217173681291       residual = 1.51e-06           smallest_sin_value = 1.00e+00
davidson iteration    7:   krylov dim =   8   energy =     -17.217171828984       residual = 1.15e-06           smallest_sin_value = 1.00e+00
davidson iteration    8:   krylov dim =   9   energy =     -17.217175775402       residual = 5.54e-07           smallest_sin_value = 1.00e+00
davidson iteration    9:   krylov dim =  10   energy =     -17.217174231537       residual = 2.46e-07           smallest_sin_value = 1.00e+00
davidson iteration   10:   krylov dim =  11   energy =     -17.217175565231       residual = 7.75e-08           smallest_sin_value = 1.00e+00
davidson iteration   11:   krylov dim =  12   energy =     -17.217175566496       residual = 3.19e-08           smallest_sin_value = 1.00e+00
davidson iteration   12:   krylov dim =  13   energy =     -17.217175767176       residual = 2.48e-08           smallest_sin_value = 1.00e+00
davidson iteration   13:   krylov dim =  14   energy =     -17.217175443628       residual = 8.59e-09           smallest_sin_value = 1.00e+00
davidson solver converged in         13 iterations

On rank 0, check n_tot: 51 and evec_eigen.size(): 51
The largest weight on the derivative vector for shift 6.2500e-02 is 8.592412e-03

solving harmonic davidson linear method for identity shift 2.5000e-01, overlap shift 2.5000e+00 and omega 0.0000e+00

iteration solving starts here(engine) 


davidson iteration    0:   krylov dim =   1   energy =     -17.217146908395       residual = 1.93e-05           smallest_sin_value = 1.00e+00
davidson iteration    1:   krylov dim =   2   energy =     -17.217153452732       residual = 1.77e-05           smallest_sin_value = 1.00e+00
davidson iteration    2:   krylov dim =   3   energy =     -17.217153302529       residual = 8.40e-06           smallest_sin_value = 1.00e+00
davidson iteration    3:   krylov dim =   4   energy =     -17.217155026793       residual = 1.04e-05           smallest_sin_value = 1.00e+00
davidson iteration    4:   krylov dim =   5   energy =     -17.217156716631       residual = 2.15e-06           smallest_sin_value = 1.00e+00
davidson iteration    5:   krylov dim =   6   energy =     -17.217157776809       residual = 1.54e-06           smallest_sin_value = 1.00e+00
davidson iteration    6:   krylov dim =   7   energy =     -17.217159690976       residual = 3.66e-07           smallest_sin_value = 1.00e+00
davidson iteration    7:   krylov dim =   8   energy =     -17.217159373663       residual = 1.84e-07           smallest_sin_value = 1.00e+00
davidson iteration    8:   krylov dim =   9   energy =     -17.217160153637       residual = 6.72e-08           smallest_sin_value = 1.00e+00
davidson iteration    9:   krylov dim =  10   energy =     -17.217159548113       residual = 2.04e-08           smallest_sin_value = 1.00e+00
davidson iteration   10:   krylov dim =  11   energy =     -17.217159771729       residual = 4.99e-09           smallest_sin_value = 1.00e+00
davidson solver converged in         10 iterations

On rank 0, check n_tot: 51 and evec_eigen.size(): 51
The largest weight on the derivative vector for shift 2.5000e-01 is 3.166614e-03

solving harmonic davidson linear method for identity shift 1.0000e+00, overlap shift 1.0000e+01 and omega 0.0000e+00

iteration solving starts here(engine) 


davidson iteration    0:   krylov dim =   1   energy =     -17.217146908395       residual = 1.93e-05           smallest_sin_value = 1.00e+00
davidson iteration    1:   krylov dim =   2   energy =     -17.217149741086       residual = 2.01e-05           smallest_sin_value = 1.00e+00
davidson iteration    2:   krylov dim =   3   energy =     -17.217149716645       residual = 7.74e-06           smallest_sin_value = 1.00e+00
davidson iteration    3:   krylov dim =   4   energy =     -17.217150166578       residual = 7.80e-06           smallest_sin_value = 1.00e+00
davidson iteration    4:   krylov dim =   5   energy =     -17.217150624624       residual = 9.98e-07           smallest_sin_value = 1.00e+00
davidson iteration    5:   krylov dim =   6   energy =     -17.217151022543       residual = 4.51e-07           smallest_sin_value = 1.00e+00
davidson iteration    6:   krylov dim =   7   energy =     -17.217151316557       residual = 8.61e-08           smallest_sin_value = 1.00e+00
davidson iteration    7:   krylov dim =   8   energy =     -17.217151314621       residual = 2.63e-08           smallest_sin_value = 1.00e+00
davidson iteration    8:   krylov dim =   9   energy =     -17.217151373880       residual = 7.13e-09           smallest_sin_value = 1.00e+00
davidson solver converged in          8 iterations

On rank 0, check n_tot: 51 and evec_eigen.size(): 51
The largest weight on the derivative vector for shift 1.0000e+00 is 9.709055e-04

About to broadcast update vector

Printing all timers used during this execution:
  eigen solver                               0.125148 seconds

After print_timers
After EngineObj->wfn_update_compute(), N is: 51 and numParams is: 50

************************************************************
Updating the guiding function with the middle shift's update
************************************************************

  Execution time = 2.5873e+01
  </log>
  <optVariables href="H2O.s001.opt.xml">
 uu_0                 2.106075e-01 1 1  ON 0
 uu_1                 4.877648e-02 1 1  ON 1
 uu_2                -4.514736e-02 1 1  ON 2
 uu_3                -9.954298e-02 1 1  ON 3
 uu_4                -1.324175e-01 1 1  ON 4
 uu_5                -1.389509e-01 1 1  ON 5
 uu_6                -1.156634e-01 1 1  ON 6
 uu_7                -4.346902e-02 1 1  ON 7
 uu_8                 9.709531e-02 1 1  ON 8
 uu_9                 1.229907e-01 1 1  ON 9
 ud_0                 3.501924e-01 1 1  ON 10
 ud_1                 9.291190e-02 1 1  ON 11
 ud_2                -1.490137e-02 1 1  ON 12
 ud_3                -7.427539e-02 1 1  ON 13
 ud_4                -1.213899e-01 1 1  ON 14
 ud_5                -1.533904e-01 1 1  ON 15
 ud_6                -1.558531e-01 1 1  ON 16
 ud_7                -1.110981e-01 1 1  ON 17
 ud_8                 6.075387e-04 1 1  ON 18
 ud_9                 9.251854e-02 1 1  ON 19
 eO_0                -7.634680e-01 1 1  ON 20
 eO_1                -4.464936e-01 1 1  ON 21
 eO_2                -4.324943e-02 1 1  ON 22
 eO_3                 2.079461e-01 1 1  ON 23
 eO_4                 3.004244e-01 1 1  ON 24
 eO_5                 3.150554e-01 1 1  ON 25
 eO_6                 2.546617e-01 1 1  ON 26
 eO_7                 1.168133e-01 1 1  ON 27
 eO_8                 2.871262e-02 1 1  ON 28
 eO_9                 1.869717e-02 1 1  ON 29
eH1_0                -1.824357e-01 1 1  ON 30
eH1_1                -1.037306e-01 1 1  ON 31
eH1_2                -6.292702e-02 1 1  ON 32
eH1_3                -2.650178e-02 1 1  ON 33
eH1_4                 1.935572e-02 1 1  ON 34
eH1_5                 3.429676e-02 1 1  ON 35
eH1_6                 7.859688e-02 1 1  ON 36
eH1_7                 1.094226e-01 1 1  ON 37
eH1_8                 9.316299e-02 1 1  ON 38
eH1_9                 2.514215e-02 1 1  ON 39
eH2_0                -1.842166e-01 1 1  ON 40
eH2_1                -1.048277e-01 1 1  ON 41
eH2_2                -6.400280e-02 1 1  ON 42
eH2_3                -2.718152e-02 1 1  ON 43
eH2_4                 1.822006e-02 1 1  ON 44
eH2_5                 3.372264e-02 1 1  ON 45
eH2_6                 7.855663e-02 1 1  ON 46
eH2_7                 1.131274e-01 1 1  ON 47
eH2_8                 9.677617e-02 1 1  ON 48
eH2_9                 2.732233e-02 1 1  ON 49
  </optVariables>
eH1
Array
eH2
Array
eO
Array
ud
Array
uu
Array
   Restore the number of walkers to 1, removing 0 walkers.
</opt>
</optimization-report>

*************************************************************
Generating a new sample based on the updated guiding function
*************************************************************

<optimization-report>
<vmc stage="main" blocks="125">
  Cannot make clones again. Use existing 1 clones
  Initial partition of walkers 0 1 
  Using Particle by Particle moves
  Walker moves without drift
  Total Sample Size   =2000000
  Walker distribution on root = 0 1 
  Using Locality Approximation
====================================================
  SimpleFixedNodeBranch::finalize after a VMC block
    QMC counter        = 1
    time step          = 0.05
    reference energy   = -17.256
    reference variance = 0.280009
====================================================
  Execution time = 2.0111e+01
</vmc>
<opt stage="setup">
  <log>
   Reading configurations from h5FileRoot H2O.s001
  Using Nonlocal PP in Opt: NonLocalECP
   Number of samples loaded to each thread : 15625 
  VMC Eavg = -1.7217e+01
  VMC Evar = 3.2515e-01
  Total weights = 2.0000e+06
  Execution time = 1.8283e+00
  </log>
</opt>
<opt stage="main" walkers="15625">
  <log>

******************************************************************
Comparing different shifts' cost function values on updated sample
******************************************************************

Start of engine's reset
Before block part of reset
end of engine's reset
Restored printouts from recurive_blocking in energy_target_accu

Crude block analysis of variance gives:     variance =       0.323967485174
                                         uncertainty =       0.006650888780

Now for a blocking analysis of energy uncertainty:

energy and target function accumulation statistics:


Restored printouts from recurive_blocking in energy_target_accu

Crude block analysis of variance gives:     variance =       0.323967485174
                                         uncertainty =       0.006650888780

Now for a blocking analysis of energy uncertainty:

  error estimate for blocks of size 2^( 1) =       0.000402557540
  error estimate for blocks of size 2^( 2) =       0.000411525118
  error estimate for blocks of size 2^( 3) =       0.000420160854
  error estimate for blocks of size 2^( 4) =       0.000426181998
  error estimate for blocks of size 2^( 5) =       0.000430069537
  error estimate for blocks of size 2^( 6) =       0.000432410941
  error estimate for blocks of size 2^( 7) =       0.000431621464

      target function =                  N/A
              le_mean =     -17.217492872888
             les_mean =     296.766165812251
             stat err =       0.000430070985
             autocorr =       1.141364486450
              std dev =       0.569302333000
             le_variance =       0.324105146360

Start of engine's reset
Before block part of reset
end of engine's reset
Restored printouts from recurive_blocking in energy_target_accu

Crude block analysis of variance gives:     variance =       0.326071730781
                                         uncertainty =       0.006725664968

Now for a blocking analysis of energy uncertainty:

energy and target function accumulation statistics:


Restored printouts from recurive_blocking in energy_target_accu

Crude block analysis of variance gives:     variance =       0.326071730781
                                         uncertainty =       0.006725664968

Now for a blocking analysis of energy uncertainty:

  error estimate for blocks of size 2^( 1) =       0.000403863234
  error estimate for blocks of size 2^( 2) =       0.000412747068
  error estimate for blocks of size 2^( 3) =       0.000421300000
  error estimate for blocks of size 2^( 4) =       0.000427247691
  error estimate for blocks of size 2^( 5) =       0.000431108905
  error estimate for blocks of size 2^( 6) =       0.000433468774
  error estimate for blocks of size 2^( 7) =       0.000432686650

      target function =                  N/A
              le_mean =     -17.217485043411
             les_mean =     296.768002080690
             stat err =       0.000431128005
             autocorr =       1.139577410321
              std dev =       0.571148863019
             le_variance =       0.326211023728

Start of engine's reset
Before block part of reset
end of engine's reset
Restored printouts from recurive_blocking in energy_target_accu

Crude block analysis of variance gives:     variance =       0.326096058263
                                         uncertainty =       0.006722689389

Now for a blocking analysis of energy uncertainty:

energy and target function accumulation statistics:


Restored printouts from recurive_blocking in energy_target_accu

Crude block analysis of variance gives:     variance =       0.326096058263
                                         uncertainty =       0.006722689389

Now for a blocking analysis of energy uncertainty:

  error estimate for blocks of size 2^( 1) =       0.000403878296
  error estimate for blocks of size 2^( 2) =       0.000412758351
  error estimate for blocks of size 2^( 3) =       0.000421312453
  error estimate for blocks of size 2^( 4) =       0.000427267092
  error estimate for blocks of size 2^( 5) =       0.000431137103
  error estimate for blocks of size 2^( 6) =       0.000433487224
  error estimate for blocks of size 2^( 7) =       0.000432709401

      target function =                  N/A
              le_mean =     -17.217483928243
             les_mean =     296.767988011511
             stat err =       0.000431150205
             autocorr =       1.139609771434
              std dev =       0.571170163196
             le_variance =       0.326235355326

Start of engine's reset
Before block part of reset
end of engine's reset
Restored printouts from recurive_blocking in energy_target_accu

Crude block analysis of variance gives:     variance =       0.324326823277
                                         uncertainty =       0.006663229521

Now for a blocking analysis of energy uncertainty:

energy and target function accumulation statistics:


Restored printouts from recurive_blocking in energy_target_accu

Crude block analysis of variance gives:     variance =       0.324326823277
                                         uncertainty =       0.006663229521

Now for a blocking analysis of energy uncertainty:

  error estimate for blocks of size 2^( 1) =       0.000402780824
  error estimate for blocks of size 2^( 2) =       0.000411730607
  error estimate for blocks of size 2^( 3) =       0.000420350289
  error estimate for blocks of size 2^( 4) =       0.000426359246
  error estimate for blocks of size 2^( 5) =       0.000430244287
  error estimate for blocks of size 2^( 6) =       0.000432586124
  error estimate for blocks of size 2^( 7) =       0.000431798469

      target function =                  N/A
              le_mean =     -17.217488788410
             les_mean =     296.766384800880
             stat err =       0.000430247031
             autocorr =       1.141032969823
              std dev =       0.569618103734
             le_variance =       0.324464784101


        shift_i        shift_s       max param change    cost function value
   ------------   ------------   --------------------   --------------------
            N/A            N/A                    N/A       -17.217492872888        initial  <--
     6.2500e-02     6.2500e-01             8.5924e-03       -17.217485043411
     2.5000e-01     2.5000e+00             3.1666e-03       -17.217483928243
     1.0000e+00     1.0000e+01             9.7091e-04       -17.217488788410

***********************************************************
Reverting to old parameters and increasing shift magnitudes
***********************************************************

  Execution time = 29.3318
  </log>
  <optVariables href="H2O.s001.opt.xml">
 uu_0                 2.103164e-01 1 1  ON 0
 uu_1                 4.842802e-02 1 1  ON 1
 uu_2                -4.536964e-02 1 1  ON 2
 uu_3                -9.952184e-02 1 1  ON 3
 uu_4                -1.324427e-01 1 1  ON 4
 uu_5                -1.388070e-01 1 1  ON 5
 uu_6                -1.152545e-01 1 1  ON 6
 uu_7                -4.294694e-02 1 1  ON 7
 uu_8                 9.747403e-02 1 1  ON 8
 uu_9                 1.227696e-01 1 1  ON 9
 ud_0                 3.489758e-01 1 1  ON 10
 ud_1                 9.226703e-02 1 1  ON 11
 ud_2                -1.458112e-02 1 1  ON 12
 ud_3                -7.345734e-02 1 1  ON 13
 ud_4                -1.206669e-01 1 1  ON 14
 ud_5                -1.533691e-01 1 1  ON 15
 ud_6                -1.558230e-01 1 1  ON 16
 ud_7                -1.110395e-01 1 1  ON 17
 ud_8                 9.412121e-04 1 1  ON 18
 ud_9                 9.244207e-02 1 1  ON 19
 eO_0                -7.603014e-01 1 1  ON 20
 eO_1                -4.449594e-01 1 1  ON 21
 eO_2                -4.367064e-02 1 1  ON 22
 eO_3                 2.064325e-01 1 1  ON 23
 eO_4                 2.992207e-01 1 1  ON 24
 eO_5                 3.145742e-01 1 1  ON 25
 eO_6                 2.542805e-01 1 1  ON 26
 eO_7                 1.163056e-01 1 1  ON 27
 eO_8                 2.860080e-02 1 1  ON 28
 eO_9                 1.865716e-02 1 1  ON 29
eH1_0                -1.819136e-01 1 1  ON 30
eH1_1                -1.033139e-01 1 1  ON 31
eH1_2                -6.293190e-02 1 1  ON 32
eH1_3                -2.643202e-02 1 1  ON 33
eH1_4                 1.902887e-02 1 1  ON 34
eH1_5                 3.411489e-02 1 1  ON 35
eH1_6                 7.851926e-02 1 1  ON 36
eH1_7                 1.094144e-01 1 1  ON 37
eH1_8                 9.288427e-02 1 1  ON 38
eH1_9                 2.504679e-02 1 1  ON 39
eH2_0                -1.837126e-01 1 1  ON 40
eH2_1                -1.047961e-01 1 1  ON 41
eH2_2                -6.407796e-02 1 1  ON 42
eH2_3                -2.725667e-02 1 1  ON 43
eH2_4                 1.806237e-02 1 1  ON 44
eH2_5                 3.372036e-02 1 1  ON 45
eH2_6                 7.864322e-02 1 1  ON 46
eH2_7                 1.132568e-01 1 1  ON 47
eH2_8                 9.653077e-02 1 1  ON 48
eH2_9                 2.718411e-02 1 1  ON 49
  </optVariables>
eH1
Array
eH2
Array
eO
Array
ud
Array
uu
Array
   Restore the number of walkers to 1, removing 0 walkers.
</opt>
</optimization-report>
  QMC Execution time = 5.5261e+01 secs
  Reusing QMCFixedSampleLinearOptimize
 Using QMCCostFunction::QMCCostFunction
   Going to include the derivatives of NonLocalECP
 Using Default Cost Function: Cost = <|E-E_ff|^2>

=========================================================
  Start QMCFixedSampleLinearOptimize
  File Root H2O.s002 append = no 
=========================================================
  Skip QMCDriver::putQMCInfo 
  Resetting Properties of the walkers 1 x 15

=========================================================
  Start VMC
  File Root H2O.s002 append = no 
=========================================================
Using existing walkers 
  Resetting Properties of the walkers 1 x 15

<vmc function="put">
  qmc_counter=2  my_counter=0
  time step      = 5.0000e-02
  blocks         = 125
  steps          = 125
  substeps       = 10
  current        = 0
  target samples = 2.0000e+06
  walkers/mpi    = 1

  stepsbetweensamples = 1
<parameter name="blocks" condition="int">125</parameter>
<parameter name="blocks_between_recompute" condition="int">0</parameter>
<parameter name="check_properties" condition="int">100</parameter>
<parameter name="checkproperties" condition="int">100</parameter>
<parameter name="current" condition="int">0</parameter>
<parameter name="dmcwalkersperthread" condition="real">1.5625e+04</parameter>
<parameter name="fermionicweight" condition="real">1.0000e-04</parameter>
<parameter name="jastrowweight" condition="real">0.0000e+00</parameter>
<parameter name="maxcpusecs" condition="real">3.6000e+05</parameter>
<parameter name="mg_beta" condition="real">0.0000e+00</parameter>
<parameter name="mg_gamma" condition="real">0.0000e+00</parameter>
<parameter name="modifiedguiding" condition="string">ParameterDerivativeAdjusted</parameter>
<parameter name="orboptweight" condition="real">0.0000e+00</parameter>
<parameter name="record_configs" condition="int">0</parameter>
<parameter name="record_walkers" condition="int">1</parameter>
<parameter name="recordconfigs" condition="int">0</parameter>
<parameter name="recordwalkers" condition="int">1</parameter>
<parameter name="rewind" condition="int">0</parameter>
<parameter name="samples" condition="real">2.0000e+06</parameter>
<parameter name="samplesperthread" condition="real">1.5625e+04</parameter>
<parameter name="steps" condition="int">125</parameter>
<parameter name="stepsbetweensamples" condition="int">1</parameter>
<parameter name="store_configs" condition="int">0</parameter>
<parameter name="storeconfigs" condition="int">0</parameter>
<parameter name="sub_steps" condition="int">10</parameter>
<parameter name="substeps" condition="int">10</parameter>
<parameter name="tau" condition="au">5.0000e-02</parameter>
<parameter name="time_step" condition="au">5.0000e-02</parameter>
<parameter name="timestep" condition="au">5.0000e-02</parameter>
<parameter name="use_drift" condition="string">no</parameter>
<parameter name="usedrift" condition="string">no</parameter>
<parameter name="walkers" condition="int">1</parameter>
<parameter name="warmup_steps" condition="int">1000</parameter>
<parameter name="warmupsteps" condition="int">1000</parameter>
  DumpConfig==false Nothing (configurations, state) will be saved.
  Walker Samples are dumped every 1 steps.
</vmc>
    Restarting, cummulative properties:
      energy     = -1.7235e+01
      variance   = 0.0000e+00
      r2accepted = 1.0000e-10
      r2proposed = 1.0000e-10
  Set drift_modifier UNR parameter a = 1.0000e+00
  EstimatorManagerBase::add replace LocalEnergy estimator.
 Using QMCCostFunction::QMCCostFunction
   Going to include the derivatives of NonLocalECP
 Using Default Cost Function: Cost = <|E-E_ff|^2>
  Set drift_modifier UNR parameter a = 1.0000e+00
  EstimatorManagerBase::add replace LocalEnergy estimator.
  EstimatorManagerBase::add replace LocalEnergy estimator.
Double check: filter_param_: false and ratio_threshold_: 0.0000e+00
Now doing initialize, nblock: 1, nkeps: 1
Start of engine's reset
Before block part of reset
end of engine's reset
entering engine_start function
<optimization-report>
<vmc stage="main" blocks="125">
  Cannot make clones again. Use existing 1 clones
  Initial partition of walkers 0 1 
Using ParameterDeriv Adjusted Guiding Function

  Using Particle by Particle moves
  Walker moves without drift
  Total Sample Size   =2000000
  Walker distribution on root = 0 1 
  Using Locality Approximation
  Anonymous Buffer size per walker : 16008 Bytes.
MEMORY increase 0 MB VMC::resetRun
====================================================
  SimpleFixedNodeBranch::finalize after a VMC block
    QMC counter        = 2
    time step          = 0.05
    reference energy   = -17.2373
    reference variance = 0.205673
====================================================
  Execution time = 2.0453e+01
</vmc>
<opt stage="setup">
  <log>
     Reading configurations from h5FileRoot H2O.s002
  QMCCostFunction is created with 1 threads.
  Using Nonlocal PP in Opt: NonLocalECP
   Number of samples loaded to each thread : 15625 
Value of Filter Bool: false before_first_block_sample: true onDescentStep: false
Before engine_checkConfigurations
Double check filter inside engine_checkConfig: false
 w_tot 1.5625e+04
  VMC Eavg = -1.7217e+01
  VMC Evar = 3.1363e-01
  Total weights = 2.000000000e+06
Before sample_finish
calling setComputed function
After engine_checkConfig
  Execution time = 5.5819e+00
  </log>
</opt>
<opt stage="main" walkers="15625">
  <log>
Restored printouts from recurive_blocking in energy_target_accu

Crude block analysis of variance gives:     variance =       0.313643794072
[...]
Value of Filter Bool: false before_first_block_sample: true onDescentStep: false
Before engine_checkConfigurations
Double check filter inside engine_checkConfig: false
 w_tot 1.5625e+04
  VMC Eavg = -1.7217e+01
  VMC Evar = 3.1815e-01
  Total weights = 2.000000000e+06
Before sample_finish
calling setComputed function
After engine_checkConfig
  Execution time = 5.5878e+00
  </log>
</opt>
<opt stage="main" walkers="15625">
  <log>
Restored printouts from recurive_blocking in energy_target_accu

Crude block analysis of variance gives:     variance =       0.318185883186
                                         uncertainty =       0.004179397984

Now for a blocking analysis of energy uncertainty:

energy and target function accumulation statistics:


Restored printouts from recurive_blocking in energy_target_accu

Crude block analysis of variance gives:     variance =       0.318185883186
                                         uncertainty =       0.004179397984

Now for a blocking analysis of energy uncertainty:

  error estimate for blocks of size 2^( 1) =       0.000398845263
  error estimate for blocks of size 2^( 2) =       0.000407825059
  error estimate for blocks of size 2^( 3) =       0.000416270224
  error estimate for blocks of size 2^( 4) =       0.000422764907
  error estimate for blocks of size 2^( 5) =       0.000426504114
  error estimate for blocks of size 2^( 6) =       0.000428765080
  error estimate for blocks of size 2^( 7) =       0.000430310981

      target function =                  N/A
              le_mean =     -17.216766218932
             les_mean =     296.735193965837
             stat err =       0.000427086271
             autocorr =       1.146627476998
              std dev =       0.564052380155
             le_variance =       0.318155087558


*************************************************************************************************
Solving the linear method equations on the initial sample with initial energy -1.721676621893e+01
*************************************************************************************************


*********************************************************
Solving the linear method equations on the initial sample
*********************************************************

Inside this version of call_engine, dep_ptr->n_tot(): 50
Check correct_vf_var_size: 153, current size: 0
Inside version of engine_update_build_matrix that takes matrices hh and ss as input
solving harmonic davidson linear method for identity shift 3.6380e+06, overlap shift 3.6380e+07 and omega 0.0000e+00

iteration solving starts here(engine) 


davidson iteration    0:   krylov dim =   1   energy =     -17.216766218932       residual = 6.91e-06           smallest_sin_value = 1.00e+00
davidson iteration    1:   krylov dim =   2   energy =     -17.216766218932       residual = 1.37e-06           smallest_sin_value = 1.00e+00
davidson iteration    2:   krylov dim =   3   energy =     -17.216766218932       residual = 5.39e-07           smallest_sin_value = 1.00e+00
davidson iteration    3:   krylov dim =   4   energy =     -17.216766218195       residual = 6.57e-07           smallest_sin_value = 1.00e+00
davidson iteration    4:   krylov dim =   5   energy =     -17.216766217925       residual = 1.33e-07           smallest_sin_value = 1.00e+00
davidson iteration    5:   krylov dim =   6   energy =     -17.216766218642       residual = 2.75e-08           smallest_sin_value = 1.00e+00
davidson iteration    6:   krylov dim =   7   energy =     -17.216766221474       residual = 4.71e-09           smallest_sin_value = 1.00e+00
davidson solver converged in          6 iterations

On rank 0, check n_tot: 51 and evec_eigen.size(): 51
The largest weight on the derivative vector for shift 3.6380e+06 is 4.879592e-11

solving harmonic davidson linear method for identity shift 1.4552e+07, overlap shift 1.4552e+08 and omega 0.0000e+00

iteration solving starts here(engine) 


davidson iteration    0:   krylov dim =   1   energy =     -17.216766218932       residual = 6.91e-06           smallest_sin_value = 1.00e+00
davidson iteration    1:   krylov dim =   2   energy =     -17.216766218932       residual = 1.37e-06           smallest_sin_value = 1.00e+00
davidson iteration    2:   krylov dim =   3   energy =     -17.216766218932       residual = 5.39e-07           smallest_sin_value = 1.00e+00
davidson iteration    3:   krylov dim =   4   energy =     -17.216766218932       residual = 6.57e-07           smallest_sin_value = 1.00e+00
davidson iteration    4:   krylov dim =   5   energy =     -17.216766221060       residual = 1.33e-07           smallest_sin_value = 1.00e+00
davidson iteration    5:   krylov dim =   6   energy =     -17.216766222510       residual = 2.75e-08           smallest_sin_value = 1.00e+00
davidson iteration    6:   krylov dim =   7   energy =     -17.216766219658       residual = 4.72e-09           smallest_sin_value = 1.00e+00
davidson solver converged in          6 iterations

On rank 0, check n_tot: 51 and evec_eigen.size(): 51
The largest weight on the derivative vector for shift 1.4552e+07 is 1.219887e-11

solving harmonic davidson linear method for identity shift 5.8208e+07, overlap shift 5.8208e+08 and omega 0.0000e+00

iteration solving starts here(engine) 


davidson iteration    0:   krylov dim =   1   energy =     -17.216766218932       residual = 6.91e-06           smallest_sin_value = 1.00e+00
davidson iteration    1:   krylov dim =   2   energy =     -17.216766218932       residual = 1.37e-06           smallest_sin_value = 1.00e+00
davidson iteration    2:   krylov dim =   3   energy =     -17.216766218932       residual = 5.39e-07           smallest_sin_value = 1.00e+00
davidson iteration    3:   krylov dim =   4   energy =     -17.216766222278       residual = 6.57e-07           smallest_sin_value = 1.00e+00
davidson iteration    4:   krylov dim =   5   energy =     -17.216766213954       residual = 1.33e-07           smallest_sin_value = 1.00e+00
davidson iteration    5:   krylov dim =   6   energy =     -17.216766227013       residual = 2.75e-08           smallest_sin_value = 1.00e+00
davidson iteration    6:   krylov dim =   7   energy =     -17.216766187272       residual = 4.72e-09           smallest_sin_value = 1.00e+00
davidson solver converged in          6 iterations

On rank 0, check n_tot: 51 and evec_eigen.size(): 51
The largest weight on the derivative vector for shift 5.8208e+07 is 3.049699e-12

About to broadcast update vector

Printing all timers used during this execution:
  eigen solver                               0.245184 seconds

After print_timers
After EngineObj->wfn_update_compute(), N is: 51 and numParams is: 50

************************************************************
Updating the guiding function with the middle shift's update
************************************************************

  Execution time = 2.6077e+01
  </log>
  <optVariables href="H2O.s039.opt.xml">
 uu_0                 2.156920e-01 1 1  ON 0
 uu_1                 5.261309e-02 1 1  ON 1
 uu_2                -4.277930e-02 1 1  ON 2
 uu_3                -9.884128e-02 1 1  ON 3
 uu_4                -1.337053e-01 1 1  ON 4
 uu_5                -1.423960e-01 1 1  ON 5
 uu_6                -1.201254e-01 1 1  ON 6
 uu_7                -5.137389e-02 1 1  ON 7
 uu_8                 9.089303e-02 1 1  ON 8
 uu_9                 1.284456e-01 1 1  ON 9
 ud_0                 3.554769e-01 1 1  ON 10
 ud_1                 9.680473e-02 1 1  ON 11
 ud_2                -1.285764e-02 1 1  ON 12
 ud_3                -7.434211e-02 1 1  ON 13
 ud_4                -1.230076e-01 1 1  ON 14
 ud_5                -1.556260e-01 1 1  ON 15
 ud_6                -1.582973e-01 1 1  ON 16
 ud_7                -1.120621e-01 1 1  ON 17
 ud_8                -8.225009e-03 1 1  ON 18
 ud_9                 9.246287e-02 1 1  ON 19
 eO_0                -7.892148e-01 1 1  ON 20
 eO_1                -4.676579e-01 1 1  ON 21
 eO_2                -5.566716e-02 1 1  ON 22
 eO_3                 2.073232e-01 1 1  ON 23
 eO_4                 3.123468e-01 1 1  ON 24
 eO_5                 3.338822e-01 1 1  ON 25
 eO_6                 2.676182e-01 1 1  ON 26
 eO_7                 1.297939e-01 1 1  ON 27
 eO_8                 3.111679e-02 1 1  ON 28
 eO_9                 1.924238e-02 1 1  ON 29
eH1_0                -1.844724e-01 1 1  ON 30
eH1_1                -1.056881e-01 1 1  ON 31
eH1_2                -6.401847e-02 1 1  ON 32
eH1_3                -2.669413e-02 1 1  ON 33
eH1_4                 1.878994e-02 1 1  ON 34
eH1_5                 3.146862e-02 1 1  ON 35
eH1_6                 7.771215e-02 1 1  ON 36
eH1_7                 1.090692e-01 1 1  ON 37
eH1_8                 1.002774e-01 1 1  ON 38
eH1_9                 2.728702e-02 1 1  ON 39
eH2_0                -1.851321e-01 1 1  ON 40
eH2_1                -1.062684e-01 1 1  ON 41
eH2_2                -6.452492e-02 1 1  ON 42
eH2_3                -2.737952e-02 1 1  ON 43
eH2_4                 1.762293e-02 1 1  ON 44
eH2_5                 3.022024e-02 1 1  ON 45
eH2_6                 7.594683e-02 1 1  ON 46
eH2_7                 1.132115e-01 1 1  ON 47
eH2_8                 1.041072e-01 1 1  ON 48
eH2_9                 2.922227e-02 1 1  ON 49
  </optVariables>
eH1
Array
eH2
Array
eO
Array
ud
Array
uu
Array
   Restore the number of walkers to 1, removing 0 walkers.
</opt>
</optimization-report>

*************************************************************
Generating a new sample based on the updated guiding function
*************************************************************

<optimization-report>
<vmc stage="main" blocks="125">
  Cannot make clones again. Use existing 1 clones
  Initial partition of walkers 0 1 
  Using Particle by Particle moves
  Walker moves without drift
  Total Sample Size   =2000000
  Walker distribution on root = 0 1 
  Using Locality Approximation
====================================================
  SimpleFixedNodeBranch::finalize after a VMC block
    QMC counter        = 39
    time step          = 0.05
    reference energy   = -17.2041
    reference variance = 0.338792
====================================================
  Execution time = 6.3917e+01
</vmc>
<opt stage="setup">
  <log>
   Reading configurations from h5FileRoot H2O.s039
  Using Nonlocal PP in Opt: NonLocalECP
   Number of samples loaded to each thread : 15625 
  VMC Eavg = -1.7216e+01
  VMC Evar = 3.1820e-01
  Total weights = 2.0000e+06
  Execution time = 1.8152e+00
  </log>
</opt>
<opt stage="main" walkers="15625">
  <log>

******************************************************************
Comparing different shifts' cost function values on updated sample
******************************************************************

Start of engine's reset
Before block part of reset
end of engine's reset
Restored printouts from recurive_blocking in energy_target_accu

Crude block analysis of variance gives:     variance =       0.318110616928
                                         uncertainty =       0.003892417904

Now for a blocking analysis of energy uncertainty:

energy and target function accumulation statistics:


Restored printouts from recurive_blocking in energy_target_accu

Crude block analysis of variance gives:     variance =       0.318110616928
                                         uncertainty =       0.003892417904

Now for a blocking analysis of energy uncertainty:

  error estimate for blocks of size 2^( 1) =       0.000398875122
  error estimate for blocks of size 2^( 2) =       0.000408773396
  error estimate for blocks of size 2^( 3) =       0.000417195459
  error estimate for blocks of size 2^( 4) =       0.000424662341
  error estimate for blocks of size 2^( 5) =       0.000428688891
  error estimate for blocks of size 2^( 6) =       0.000431783500
  error estimate for blocks of size 2^( 7) =       0.000433904839

      target function =                  N/A
              le_mean =     -17.216065736510
             les_mean =     296.711122010334
             stat err =       0.000429759893
             autocorr =       1.160854704679
              std dev =       0.564094606954
             le_variance =       0.318202725595

Start of engine's reset
Before block part of reset
end of engine's reset
Restored printouts from recurive_blocking in energy_target_accu

Crude block analysis of variance gives:     variance =       0.318110616951
                                         uncertainty =       0.003892417904

Now for a blocking analysis of energy uncertainty:

energy and target function accumulation statistics:


Restored printouts from recurive_blocking in energy_target_accu

Crude block analysis of variance gives:     variance =       0.318110616951
                                         uncertainty =       0.003892417904

Now for a blocking analysis of energy uncertainty:

  error estimate for blocks of size 2^( 1) =       0.000398875122
  error estimate for blocks of size 2^( 2) =       0.000408773396
  error estimate for blocks of size 2^( 3) =       0.000417195459
  error estimate for blocks of size 2^( 4) =       0.000424662341
  error estimate for blocks of size 2^( 5) =       0.000428688891
  error estimate for blocks of size 2^( 6) =       0.000431783500
  error estimate for blocks of size 2^( 7) =       0.000433904839

      target function =                  N/A
              le_mean =     -17.216065736510
             les_mean =     296.711122010353
             stat err =       0.000429759893
             autocorr =       1.160854704662
              std dev =       0.564094606974
             le_variance =       0.318202725617

Start of engine's reset
Before block part of reset
end of engine's reset
Restored printouts from recurive_blocking in energy_target_accu

Crude block analysis of variance gives:     variance =       0.318110616939
                                         uncertainty =       0.003892417904

Now for a blocking analysis of energy uncertainty:

energy and target function accumulation statistics:


Restored printouts from recurive_blocking in energy_target_accu

Crude block analysis of variance gives:     variance =       0.318110616939
                                         uncertainty =       0.003892417904

Now for a blocking analysis of energy uncertainty:

  error estimate for blocks of size 2^( 1) =       0.000398875122
  error estimate for blocks of size 2^( 2) =       0.000408773396
  error estimate for blocks of size 2^( 3) =       0.000417195459
  error estimate for blocks of size 2^( 4) =       0.000424662341
  error estimate for blocks of size 2^( 5) =       0.000428688891
  error estimate for blocks of size 2^( 6) =       0.000431783500
  error estimate for blocks of size 2^( 7) =       0.000433904839

      target function =                  N/A
              le_mean =     -17.216065736510
             les_mean =     296.711122010344
             stat err =       0.000429759893
             autocorr =       1.160854704665
              std dev =       0.564094606964
             le_variance =       0.318202725606

Start of engine's reset
Before block part of reset
end of engine's reset
Restored printouts from recurive_blocking in energy_target_accu

Crude block analysis of variance gives:     variance =       0.318110616929
                                         uncertainty =       0.003892417904

Now for a blocking analysis of energy uncertainty:

energy and target function accumulation statistics:


Restored printouts from recurive_blocking in energy_target_accu

Crude block analysis of variance gives:     variance =       0.318110616929
                                         uncertainty =       0.003892417904

Now for a blocking analysis of energy uncertainty:

  error estimate for blocks of size 2^( 1) =       0.000398875122
  error estimate for blocks of size 2^( 2) =       0.000408773396
  error estimate for blocks of size 2^( 3) =       0.000417195459
  error estimate for blocks of size 2^( 4) =       0.000424662341
  error estimate for blocks of size 2^( 5) =       0.000428688891
  error estimate for blocks of size 2^( 6) =       0.000431783500
  error estimate for blocks of size 2^( 7) =       0.000433904839

      target function =                  N/A
              le_mean =     -17.216065736510
             les_mean =     296.711122010335
             stat err =       0.000429759893
             autocorr =       1.160854704684
              std dev =       0.564094606955
             le_variance =       0.318202725596


        shift_i        shift_s       max param change    cost function value
   ------------   ------------   --------------------   --------------------
            N/A            N/A                    N/A       -17.216065736510        initial  <--
     3.6380e+06     3.6380e+07             4.8796e-11       -17.216065736510
     1.4552e+07     1.4552e+08             1.2199e-11       -17.216065736510
     5.8208e+07     5.8208e+08             3.0497e-12       -17.216065736510

***********************************************************
Reverting to old parameters and increasing shift magnitudes
***********************************************************

  Execution time = 73.0672
  </log>
  <optVariables href="H2O.s039.opt.xml">
 uu_0                 2.156920e-01 1 1  ON 0
 uu_1                 5.261309e-02 1 1  ON 1
 uu_2                -4.277930e-02 1 1  ON 2
 uu_3                -9.884128e-02 1 1  ON 3
 uu_4                -1.337053e-01 1 1  ON 4
 uu_5                -1.423960e-01 1 1  ON 5
 uu_6                -1.201254e-01 1 1  ON 6
 uu_7                -5.137389e-02 1 1  ON 7
 uu_8                 9.089303e-02 1 1  ON 8
 uu_9                 1.284456e-01 1 1  ON 9
 ud_0                 3.554769e-01 1 1  ON 10
 ud_1                 9.680473e-02 1 1  ON 11
 ud_2                -1.285764e-02 1 1  ON 12
 ud_3                -7.434211e-02 1 1  ON 13
 ud_4                -1.230076e-01 1 1  ON 14
 ud_5                -1.556260e-01 1 1  ON 15
 ud_6                -1.582973e-01 1 1  ON 16
 ud_7                -1.120621e-01 1 1  ON 17
 ud_8                -8.225009e-03 1 1  ON 18
 ud_9                 9.246287e-02 1 1  ON 19
 eO_0                -7.892148e-01 1 1  ON 20
 eO_1                -4.676579e-01 1 1  ON 21
 eO_2                -5.566716e-02 1 1  ON 22
 eO_3                 2.073232e-01 1 1  ON 23
 eO_4                 3.123468e-01 1 1  ON 24
 eO_5                 3.338822e-01 1 1  ON 25
 eO_6                 2.676182e-01 1 1  ON 26
 eO_7                 1.297939e-01 1 1  ON 27
 eO_8                 3.111679e-02 1 1  ON 28
 eO_9                 1.924238e-02 1 1  ON 29
eH1_0                -1.844724e-01 1 1  ON 30
eH1_1                -1.056881e-01 1 1  ON 31
eH1_2                -6.401847e-02 1 1  ON 32
eH1_3                -2.669413e-02 1 1  ON 33
eH1_4                 1.878994e-02 1 1  ON 34
eH1_5                 3.146862e-02 1 1  ON 35
eH1_6                 7.771215e-02 1 1  ON 36
eH1_7                 1.090692e-01 1 1  ON 37
eH1_8                 1.002774e-01 1 1  ON 38
eH1_9                 2.728702e-02 1 1  ON 39
eH2_0                -1.851321e-01 1 1  ON 40
eH2_1                -1.062684e-01 1 1  ON 41
eH2_2                -6.452492e-02 1 1  ON 42
eH2_3                -2.737952e-02 1 1  ON 43
eH2_4                 1.762293e-02 1 1  ON 44
eH2_5                 3.022024e-02 1 1  ON 45
eH2_6                 7.594683e-02 1 1  ON 46
eH2_7                 1.132115e-01 1 1  ON 47
eH2_8                 1.041072e-01 1 1  ON 48
eH2_9                 2.922227e-02 1 1  ON 49
  </optVariables>
eH1
Array
eH2
Array
eO
Array
ud
Array
uu
Array
   Restore the number of walkers to 1, removing 0 walkers.
</opt>
</optimization-report>
  QMC Execution time = 9.9380e+01 secs
  Total Execution time = 2.3589e+03 secs

=========================================================
  A new xml input file : H2O.s039.cont.xml
