Rank =    0  Free Memory = 80192 MB
Rank =   32  Free Memory = 73556 MB
Rank =   33  Free Memory = 73556 MB
Rank =   34  Free Memory = 73556 MB
Rank =   35  Free Memory = 73556 MB
Rank =   36  Free Memory = 73556 MB
Rank =   37  Free Memory = 73556 MB
Rank =   38  Free Memory = 73556 MB
Rank =   39  Free Memory = 73556 MB
Rank =   40  Free Memory = 73556 MB
Rank =   41  Free Memory = 73556 MB
Rank =   42  Free Memory = 73556 MB
Rank =   43  Free Memory = 73556 MB
Rank =   44  Free Memory = 73556 MB
Rank =   45  Free Memory = 73556 MB
Rank =   46  Free Memory = 73556 MB
Rank =   47  Free Memory = 73556 MB
Rank =   48  Free Memory = 73556 MB
Rank =   49  Free Memory = 73556 MB
Rank =   50  Free Memory = 73556 MB
Rank =   51  Free Memory = 73556 MB
Rank =   52  Free Memory = 73556 MB
Rank =   53  Free Memory = 73556 MB
Rank =   54  Free Memory = 73556 MB
Rank =   55  Free Memory = 73556 MB
Rank =   56  Free Memory = 73556 MB
Rank =   57  Free Memory = 73556 MB
Rank =   58  Free Memory = 73556 MB
Rank =   59  Free Memory = 73556 MB
Rank =   60  Free Memory = 73556 MB
  Input file(s): opt_form_pi2pistar_gvptt_run003p.xml 

=====================================================
                    QMCPACK 3.7.9

       (c) Copyright 2003-  QMCPACK developers

                    Please cite:
 J. Kim et al. J. Phys. Cond. Mat. 30 195901 (2018)
      https://doi.org/10.1088/1361-648X/aab9c3

  Git branch: gvp
  Last git commit: 39b7557df04c29964085ccccce933740e3918067-dirty
  Last git commit date: Wed Mar 22 11:37:25 2023 -0700
  Last git commit subject: deleting more debugging statements
=====================================================
  Global options 

  Total number of MPI ranks = 128
  Number of MPI groups      = 1
  MPI group ID              = 0
  Number of ranks in group  = 128
  MPI ranks per node        = 32
  OMP 1st level threads     = 1
  OMP nested threading disabled or only 1 thread on the 2nd level

  Precision used in this calculation, see definitions in the manual:
  Base precision      = double
  Full precision      = double

  Structure-of-arrays (SoA) optimization enabled

  Input XML = opt_form_pi2pistar_gvptt_run003p.xml
Rank =   61  Free Memory = 73555 MB
Rank =   62  Free Memory = 73555 MB
Rank =   63  Free Memory = 73555 MB
Rank =   64  Free Memory = 74826 MB
Rank =   65  Free Memory = 74826 MB
Rank =   66  Free Memory = 74826 MB
Rank =   67  Free Memory = 74826 MB
Rank =   68  Free Memory = 74826 MB
Rank =   69  Free Memory = 74826 MB
Rank =   70  Free Memory = 74826 MB
Rank =   71  Free Memory = 74826 MB
Rank =   72  Free Memory = 74826 MB
Rank =   73  Free Memory = 74826 MB
Rank =   74  Free Memory = 74826 MB
Rank =   75  Free Memory = 74826 MB
Rank =   76  Free Memory = 74826 MB
Rank =   77  Free Memory = 74826 MB
Rank =   78  Free Memory = 74826 MB
Rank =   79  Free Memory = 74826 MB
Rank =   80  Free Memory = 74826 MB
Rank =   81  Free Memory = 74826 MB
Rank =   82  Free Memory = 74826 MB
Rank =   83  Free Memory = 74826 MB
Rank =   84  Free Memory = 74826 MB
Rank =   85  Free Memory = 74826 MB
Rank =   86  Free Memory = 74826 MB
Rank =   87  Free Memory = 74826 MB
Rank =   88  Free Memory = 74826 MB
Rank =   89  Free Memory = 74826 MB
Rank =   90  Free Memory = 74826 MB
Rank =   91  Free Memory = 74826 MB
Rank =   92  Free Memory = 74826 MB
Rank =   93  Free Memory = 74826 MB
Rank =   94  Free Memory = 74826 MB
Rank =   95  Free Memory = 74826 MB
Rank =   96  Free Memory = 83077 MB
Rank =   97  Free Memory = 83077 MB
Rank =   98  Free Memory = 83077 MB
Rank =   99  Free Memory = 83077 MB
Rank =  100  Free Memory = 83077 MB
Rank =  101  Free Memory = 83077 MB
Rank =  102  Free Memory = 83077 MB
Rank =  103  Free Memory = 83077 MB
Rank =  104  Free Memory = 83077 MB
Rank =  105  Free Memory = 83077 MB
Rank =  106  Free Memory = 83077 MB
Rank =  107  Free Memory = 83077 MB
Rank =  108  Free Memory = 83077 MB
Rank =  109  Free Memory = 83077 MB
Rank =  110  Free Memory = 83077 MB
Rank =  111  Free Memory = 83077 MB
Rank =  112  Free Memory = 83077 MB
Rank =  113  Free Memory = 83077 MB
Rank =  114  Free Memory = 83077 MB
Rank =  115  Free Memory = 83077 MB
Rank =  116  Free Memory = 83077 MB
Rank =  117  Free Memory = 83077 MB
Rank =  118  Free Memory = 83077 MB
Rank =  119  Free Memory = 83077 MB
Rank =  120  Free Memory = 83077 MB
Rank =  121  Free Memory = 83077 MB
Rank =  122  Free Memory = 83077 MB
Rank =  123  Free Memory = 83077 MB
Rank =  124  Free Memory = 83077 MB
Rank =  125  Free Memory = 83077 MB
Rank =  126  Free Memory = 83077 MB
Rank =  127  Free Memory = 83077 MB
Rank =   31  Free Memory = 80174 MB
Rank =    1  Free Memory = 80191 MB
Rank =    2  Free Memory = 80191 MB
Rank =    3  Free Memory = 80191 MB
Rank =    4  Free Memory = 80190 MB
Rank =    5  Free Memory = 80190 MB
Rank =    6  Free Memory = 80190 MB
Rank =    7  Free Memory = 80190 MB
Rank =    8  Free Memory = 80190 MB
Rank =    9  Free Memory = 80190 MB
Rank =   10  Free Memory = 80190 MB
Rank =   11  Free Memory = 80190 MB
Rank =   12  Free Memory = 80190 MB
Rank =   13  Free Memory = 80189 MB
Rank =   14  Free Memory = 80188 MB
Rank =   15  Free Memory = 80174 MB
Rank =   16  Free Memory = 80174 MB
Rank =   17  Free Memory = 80174 MB
Rank =   18  Free Memory = 80174 MB
Rank =   19  Free Memory = 80174 MB
Rank =   20  Free Memory = 80174 MB
Rank =   21  Free Memory = 80174 MB
Rank =   22  Free Memory = 80174 MB
Rank =   23  Free Memory = 80174 MB
Rank =   24  Free Memory = 80174 MB
Rank =   25  Free Memory = 80174 MB
Rank =   26  Free Memory = 80174 MB
Rank =   27  Free Memory = 80174 MB
Rank =   28  Free Memory = 80174 MB
Rank =   29  Free Memory = 80174 MB
Rank =   30  Free Memory = 80174 MB

  Project = FORM
  date    = 2023-04-10 18:38:36 PDT
  host    = n0095.savio3

 Random Number
 -------------
  Offset for the random number seeds based on time: 540

  Range of prime numbers to use as seeds over processors and threads = 3917-5003


 Particle Set 
 ------------
  Name: e
  All the species have the same mass 1
  Particle set size: 12

 Particle Set 
 ------------
  Name: ion0
  All the species have the same mass 1
  Particle set size: 4

 Wavefunction setup: 
 ------------------- 
  Name: psi0

   Jastrow
   -------
    Name: J2   Type: Two-Body   Function: Bspline

    Radial function for species: u - u
     Number of parameters: 10
     Cusp: -0.25
     Cutoff radius: 10

     Name                        Value Type Recompute Use Index
     ---- ---------------------------- ---- --------- --- -----
     uu_0                 2.742407e-01    1         1  ON     0
     uu_1                 9.880689e-02    1         1  ON     1
     uu_2                -1.788140e-02    1         1  ON     2
     uu_3                -8.848323e-02    1         1  ON     3
     uu_4                -1.302259e-01    1         1  ON     4
     uu_5                -1.554929e-01    1         1  ON     5
     uu_6                -1.684049e-01    1         1  ON     6
     uu_7                -1.686773e-01    1         1  ON     7
     uu_8                -1.533121e-01    1         1  ON     8
     uu_9                -1.134818e-01    1         1  ON     9

    Radial function for species: u - d
     Number of parameters: 10
     Cusp: -5.000000e-01
     Cutoff radius: 1.000000e+01

     Name                        Value Type Recompute Use Index
     ---- ---------------------------- ---- --------- --- -----
     ud_0                 4.682842e-01    1         1  ON     0
     ud_1                 1.836110e-01    1         1  ON     1
     ud_2                 3.285803e-02    1         1  ON     2
     ud_3                -5.221566e-02    1         1  ON     3
     ud_4                -1.027339e-01    1         1  ON     4
     ud_5                -1.363653e-01    1         1  ON     5
     ud_6                -1.574329e-01    1         1  ON     6
     ud_7                -1.657376e-01    1         1  ON     7
     ud_8                -1.566111e-01    1         1  ON     8
     ud_9                -1.259104e-01    1         1  ON     9


   Jastrow
   -------
    Name: J1   Type: One-Body   Function: Bspline

    Radial function for element: C
     Number of parameters: 10
     Cusp: 0.000000e+00
     Cutoff radius: 1.000000e+01

     Name                        Value Type Recompute Use Index
     ---- ---------------------------- ---- --------- --- -----
     eC_0                -6.751847e-01    1         1  ON     0
     eC_1                -5.011759e-01    1         1  ON     1
     eC_2                -1.988049e-01    1         1  ON     2
     eC_3                 2.141487e-02    1         1  ON     3
     eC_4                 1.646511e-01    1         1  ON     4
     eC_5                 2.848997e-01    1         1  ON     5
     eC_6                 2.994933e-01    1         1  ON     6
     eC_7                 3.274885e-01    1         1  ON     7
     eC_8                 2.284963e-01    1         1  ON     8
     eC_9                 5.024826e-02    1         1  ON     9

    Radial function for element: O
     Number of parameters: 10
     Cusp: 0.000000e+00
     Cutoff radius: 1.000000e+01

     Name                        Value Type Recompute Use Index
     ---- ---------------------------- ---- --------- --- -----
     eO_0                -1.211936e+00    1         1  ON     0
     eO_1                -8.193689e-01    1         1  ON     1
     eO_2                -3.257415e-01    1         1  ON     2
     eO_3                 1.122829e-03    1         1  ON     3
     eO_4                 2.270299e-01    1         1  ON     4
     eO_5                 3.689895e-01    1         1  ON     5
     eO_6                 4.049026e-01    1         1  ON     6
     eO_7                 4.324017e-01    1         1  ON     7
     eO_8                 4.457876e-01    1         1  ON     8
     eO_9                 3.333628e-01    1         1  ON     9

    Radial function for element: H1
     Number of parameters: 10
     Cusp: 0.000000e+00
     Cutoff radius: 1.000000e+01

      Name                        Value Type Recompute Use Index
     ----- ---------------------------- ---- --------- --- -----
     eH1_0                -1.640836e-01    1         1  ON     0
     eH1_1                -6.399559e-02    1         1  ON     1
     eH1_2                -4.257512e-02    1         1  ON     2
     eH1_3                -4.057066e-02    1         1  ON     3
     eH1_4                -2.684417e-03    1         1  ON     4
     eH1_5                 8.269671e-03    1         1  ON     5
     eH1_6                 3.791560e-02    1         1  ON     6
     eH1_7                 4.572483e-02    1         1  ON     7
     eH1_8                 3.048808e-02    1         1  ON     8
     eH1_9                 8.898375e-02    1         1  ON     9

    Radial function for element: H2
     Number of parameters: 10
     Cusp: 0.000000e+00
     Cutoff radius: 1.000000e+01

      Name                        Value Type Recompute Use Index
     ----- ---------------------------- ---- --------- --- -----
     eH2_0                -1.673462e-01    1         1  ON     0
     eH2_1                -6.686044e-02    1         1  ON     1
     eH2_2                -4.594370e-02    1         1  ON     2
     eH2_3                -4.368837e-02    1         1  ON     3
     eH2_4                -5.530957e-03    1         1  ON     4
     eH2_5                 5.831498e-03    1         1  ON     5
     eH2_6                 3.589556e-02    1         1  ON     6
     eH2_7                 4.285226e-02    1         1  ON     7
     eH2_8                 2.707329e-02    1         1  ON     8
     eH2_9                 9.318316e-02    1         1  ON     9

  Created SPOSet builder named 'LCAOBSet' of type molecularorbital
  LCAO: SoaAtomicBasisSet<MultiQuintic,0>
  AO BasisSet for C
   Angular momentum expanded in cartesian functions x^lx y^ly z^lz according to Gamess
Using log grid with default values: ri = 1.000000e-06 rf = 1.000000e+02 npts = 1001
   R(n,l,m,s) 0 0 0 0
   R(n,l,m,s) 1 0 0 0
   R(n,l,m,s) 2 1 0 0
   R(n,l,m,s) 3 1 0 0
   R(n,l,m,s) 4 2 0 0
Expanding Ylm (angular function) according to Gamess using cartesian gaussians
Adding 1 cartesian gaussian orbitals for l= 0
Adding 1 cartesian gaussian orbitals for l= 0
Adding 3 cartesian gaussian orbitals for l= 1
Adding 3 cartesian gaussian orbitals for l= 1
Adding 6 cartesian gaussian orbitals for l= 2
  Setting cutoff radius 1.270574e+01

   Maximum Angular Momentum  = 2
   Number of Radial functors = 5
   Basis size                = 14

  AO BasisSet for O
   Angular momentum expanded in cartesian functions x^lx y^ly z^lz according to Gamess
Using log grid with default values: ri = 1.000000e-06 rf = 1.000000e+02 npts = 1001
   R(n,l,m,s) 0 0 0 0
   R(n,l,m,s) 1 0 0 0
   R(n,l,m,s) 2 1 0 0
   R(n,l,m,s) 3 1 0 0
   R(n,l,m,s) 4 2 0 0
Expanding Ylm (angular function) according to Gamess using cartesian gaussians
Adding 1 cartesian gaussian orbitals for l= 0
Adding 1 cartesian gaussian orbitals for l= 0
Adding 3 cartesian gaussian orbitals for l= 1
Adding 3 cartesian gaussian orbitals for l= 1
Adding 6 cartesian gaussian orbitals for l= 2
  Setting cutoff radius 1.018591e+01

   Maximum Angular Momentum  = 2
   Number of Radial functors = 5
   Basis size                = 14

  AO BasisSet for H1
   Angular momentum expanded in cartesian functions x^lx y^ly z^lz according to Gamess
Using log grid with default values: ri = 1.000000e-06 rf = 1.000000e+02 npts = 1001
   R(n,l,m,s) 0 0 0 0
   R(n,l,m,s) 1 0 0 0
   R(n,l,m,s) 2 1 0 0
Expanding Ylm (angular function) according to Gamess using cartesian gaussians
Adding 1 cartesian gaussian orbitals for l= 0
Adding 1 cartesian gaussian orbitals for l= 0
Adding 3 cartesian gaussian orbitals for l= 1
  Setting cutoff radius 1.270574e+01

   Maximum Angular Momentum  = 1
   Number of Radial functors = 3
   Basis size                = 5

  AO BasisSet for H2
   Angular momentum expanded in cartesian functions x^lx y^ly z^lz according to Gamess
Using log grid with default values: ri = 1.000000e-06 rf = 1.000000e+02 npts = 1001
   R(n,l,m,s) 0 0 0 0
   R(n,l,m,s) 1 0 0 0
   R(n,l,m,s) 2 1 0 0
Expanding Ylm (angular function) according to Gamess using cartesian gaussians
Adding 1 cartesian gaussian orbitals for l= 0
Adding 1 cartesian gaussian orbitals for l= 0
Adding 3 cartesian gaussian orbitals for l= 1
  Setting cutoff radius 1.270574e+01

   Maximum Angular Momentum  = 1
   Number of Radial functors = 3
   Basis size                = 5

Creating SPOSet in SlaterDetBuilder::put(xmlNodePtr cur).
spo_name = spo-up
  Building SPOSet 'spo-up' with '' basis set.
Creating SPOSet in SlaterDetBuilder::put(xmlNodePtr cur).
spo_name = spo-dn
  Building SPOSet 'spo-dn' with '' basis set.
Using Bryan's algorithm for MultiSlaterDeterminant expansion. 
Creating base determinant (up) for MSD expansion. 
Creating base determinant (down) for MSD expansion. 
Found determinant list. 
Reading CI expansion.
Found 140 terms in the MSD expansion.
Norm of ci vector (sum of ci^2): 2.361409e+00
Norm of qchem ci vector (sum of qchem_ci^2): 0.000000e+00
Found 28 unique up determinants.
Found 28 unique down determinants.
Number of terms in pairs array: 12
Number of terms in pairs array: 12
CI coefficients are not optimizable. 
  FermionWF = MultiSlaterDeterminantFast
  QMCHamiltonian::addOperator Kinetic to H, physical Hamiltonian 
  QMCHamiltonian::addOperator ElecElec to H, physical Hamiltonian 
QMCHamiltonian::addOperatorType added type coulomb named ElecElec

  ECPotential builder for pseudopotential 

  Adding pseudopotential for C
   Linear grid  ri=0.000000e+00 rf=1.000000e+01 npts = 10001
    ECPComponentBuilder::buildSemiLocalAndLocal 
    Assuming Hartree unit
   Number of angular momentum channels 2
   Maximum angular momentum channel 1
   Creating a Linear Grid Rmax=1.405000e+00
  Using global grid with delta = 1.000000e-03
   Making L=1 a local potential with a radial cutoff of 9.999000e+00
    Non-local pseudopotential parameters
    Maximum angular mementum = 0
    Number of non-local channels = 1
       l(0)=0
    Cutoff radius = 1.405000e+00
    Spherical grids and weights: 
         1.0000000000e+00  0.0000000000e+00  0.0000000000e+00    8.3333333333e-02
        -1.0000000000e+00  1.2246467991e-16  0.0000000000e+00    8.3333333333e-02
         4.4721359550e-01  8.9442719100e-01  0.0000000000e+00    8.3333333333e-02
        -4.4721359550e-01  7.2360679775e-01  5.2573111212e-01    8.3333333333e-02
         4.4721359550e-01  2.7639320225e-01  8.5065080835e-01    8.3333333333e-02
        -4.4721359550e-01 -2.7639320225e-01  8.5065080835e-01    8.3333333333e-02
         4.4721359550e-01 -7.2360679775e-01  5.2573111212e-01    8.3333333333e-02
        -4.4721359550e-01 -8.9442719100e-01  1.0953573965e-16    8.3333333333e-02
         4.4721359550e-01 -7.2360679775e-01 -5.2573111212e-01    8.3333333333e-02
        -4.4721359550e-01 -2.7639320225e-01 -8.5065080835e-01    8.3333333333e-02
         4.4721359550e-01  2.7639320225e-01 -8.5065080835e-01    8.3333333333e-02
        -4.4721359550e-01  7.2360679775e-01 -5.2573111212e-01    8.3333333333e-02
    Maximum cutoff radius 1.4050000000e+00

  Adding pseudopotential for O
   Linear grid  ri=0.0000000000e+00 rf=1.0000000000e+01 npts = 10001
    ECPComponentBuilder::buildSemiLocalAndLocal 
    Assuming Hartree unit
   Number of angular momentum channels 2
   Maximum angular momentum channel 1
   Creating a Linear Grid Rmax=1.0750000000e+00
  Using global grid with delta = 1.0000000000e-03
   Making L=1 a local potential with a radial cutoff of 9.9990000000e+00
    Non-local pseudopotential parameters
    Maximum angular mementum = 0
    Number of non-local channels = 1
       l(0)=0
    Cutoff radius = 1.0750000000e+00
    Spherical grids and weights: 
         1.0000000000e+00  0.0000000000e+00  0.0000000000e+00    8.3333333333e-02
        -1.0000000000e+00  1.2246467991e-16  0.0000000000e+00    8.3333333333e-02
         4.4721359550e-01  8.9442719100e-01  0.0000000000e+00    8.3333333333e-02
        -4.4721359550e-01  7.2360679775e-01  5.2573111212e-01    8.3333333333e-02
         4.4721359550e-01  2.7639320225e-01  8.5065080835e-01    8.3333333333e-02
        -4.4721359550e-01 -2.7639320225e-01  8.5065080835e-01    8.3333333333e-02
         4.4721359550e-01 -7.2360679775e-01  5.2573111212e-01    8.3333333333e-02
        -4.4721359550e-01 -8.9442719100e-01  1.0953573965e-16    8.3333333333e-02
         4.4721359550e-01 -7.2360679775e-01 -5.2573111212e-01    8.3333333333e-02
        -4.4721359550e-01 -2.7639320225e-01 -8.5065080835e-01    8.3333333333e-02
         4.4721359550e-01  2.7639320225e-01 -8.5065080835e-01    8.3333333333e-02
        -4.4721359550e-01  7.2360679775e-01 -5.2573111212e-01    8.3333333333e-02
    Maximum cutoff radius 1.0750000000e+00

  Adding pseudopotential for H1
   Linear grid  ri=0.0000000000e+00 rf=1.0000000000e+01 npts = 10001
    ECPComponentBuilder::buildSemiLocalAndLocal 
    Assuming Hartree unit
   Number of angular momentum channels 2
   Maximum angular momentum channel 1
   Creating a Linear Grid Rmax=1.0000000000e-10
  Using global grid with delta = 1.0000000000e-03
   Making L=1 a local potential with a radial cutoff of 9.9990000000e+00
    Non-local pseudopotential parameters
    Maximum angular mementum = 0
    Number of non-local channels = 1
       l(0)=0
    Cutoff radius = 1.0000000000e-03
    Spherical grids and weights: 
         1.0000000000e+00  0.0000000000e+00  0.0000000000e+00    8.3333333333e-02
        -1.0000000000e+00  1.2246467991e-16  0.0000000000e+00    8.3333333333e-02
         4.4721359550e-01  8.9442719100e-01  0.0000000000e+00    8.3333333333e-02
        -4.4721359550e-01  7.2360679775e-01  5.2573111212e-01    8.3333333333e-02
         4.4721359550e-01  2.7639320225e-01  8.5065080835e-01    8.3333333333e-02
        -4.4721359550e-01 -2.7639320225e-01  8.5065080835e-01    8.3333333333e-02
         4.4721359550e-01 -7.2360679775e-01  5.2573111212e-01    8.3333333333e-02
        -4.4721359550e-01 -8.9442719100e-01  1.0953573965e-16    8.3333333333e-02
         4.4721359550e-01 -7.2360679775e-01 -5.2573111212e-01    8.3333333333e-02
        -4.4721359550e-01 -2.7639320225e-01 -8.5065080835e-01    8.3333333333e-02
         4.4721359550e-01  2.7639320225e-01 -8.5065080835e-01    8.3333333333e-02
        -4.4721359550e-01  7.2360679775e-01 -5.2573111212e-01    8.3333333333e-02
    Maximum cutoff radius 1.0000000000e-03

  Adding pseudopotential for H2
   Linear grid  ri=0.0000000000e+00 rf=1.0000000000e+01 npts = 10001
    ECPComponentBuilder::buildSemiLocalAndLocal 
    Assuming Hartree unit
   Number of angular momentum channels 2
   Maximum angular momentum channel 1
   Creating a Linear Grid Rmax=1.0000000000e-10
  Using global grid with delta = 1.0000000000e-03
   Making L=1 a local potential with a radial cutoff of 9.9990000000e+00
    Non-local pseudopotential parameters
    Maximum angular mementum = 0
    Number of non-local channels = 1
       l(0)=0
    Cutoff radius = 1.0000000000e-03
    Spherical grids and weights: 
         1.0000000000e+00  0.0000000000e+00  0.0000000000e+00    8.3333333333e-02
        -1.0000000000e+00  1.2246467991e-16  0.0000000000e+00    8.3333333333e-02
         4.4721359550e-01  8.9442719100e-01  0.0000000000e+00    8.3333333333e-02
        -4.4721359550e-01  7.2360679775e-01  5.2573111212e-01    8.3333333333e-02
         4.4721359550e-01  2.7639320225e-01  8.5065080835e-01    8.3333333333e-02
        -4.4721359550e-01 -2.7639320225e-01  8.5065080835e-01    8.3333333333e-02
         4.4721359550e-01 -7.2360679775e-01  5.2573111212e-01    8.3333333333e-02
        -4.4721359550e-01 -8.9442719100e-01  1.0953573965e-16    8.3333333333e-02
         4.4721359550e-01 -7.2360679775e-01 -5.2573111212e-01    8.3333333333e-02
        -4.4721359550e-01 -2.7639320225e-01 -8.5065080835e-01    8.3333333333e-02
         4.4721359550e-01  2.7639320225e-01 -8.5065080835e-01    8.3333333333e-02
        -4.4721359550e-01  7.2360679775e-01 -5.2573111212e-01    8.3333333333e-02
    Maximum cutoff radius 1.0000000000e-03
  QMCHamiltonian::addOperator LocalECP to H, physical Hamiltonian 

  Using NonLocalECP potential 
    Maximum grid on a sphere for NonLocalECPotential: 12
  QMCHamiltonian::addOperator NonLocalECP to H, physical Hamiltonian 
QMCHamiltonian::addOperatorType added type pseudo named NonLocalECP
  QMCHamiltonian::addOperator IonIon to H, physical Hamiltonian 
QMCHamiltonian::addOperatorType added type coulomb named IonIon

  QMCHamiltonian::add2WalkerProperty added
    5 to P::PropertyList 
    0 to P::Collectables 
    starting Index of the observables in P::PropertyList = 10
ParticleSetPool::randomize 
  Initialization Execution time = 1.0630e+00 secs
=========================================================
 Summary of QMC systems 
=========================================================
ParticleSetPool has: 

  ParticleSet 'e' contains 12 particles :  u(6) d(6)

    u  4.0107225728e-02 -5.0659535091e-01 -4.8356690577e-01
    u -2.0203417087e-01 -1.2691590666e+00 -2.1169263951e+00
    u  2.9913287695e-01 -2.3710879234e-01  2.0101719070e+00
    u  4.8474243406e-02 -5.3051852953e-01  9.5378285444e-01
    u -5.5511775119e-01 -9.8683271286e-02  1.4043240644e+00
    u  6.9646297924e-01  2.5004217823e+00 -2.4744046405e+00
    d -1.1004432466e+00 -7.1118992563e-01 -1.4300801983e+00
    d -3.6824818327e-02  7.5687344105e-01 -1.6708867165e+00
    d -9.4375526199e-01  1.5348935511e-01  1.1974289766e+00
    d -8.9321447322e-02 -6.9596903295e-02  1.4810785623e+00
    (... and 2 more particle positions ...)

  Distance table for similar particles (A-A):
    source/target: e
    Using structure-of-arrays (SoA) data layout
    Distance computations use open boundary conditions in 3D.

  Distance table for dissimilar particles (A-B):
    source: ion0  target: e
    Using structure-of-arrays (SoA) data layout
    Distance computations use open boundary conditions in 3D.


  ParticleSet 'ion0' contains 4 particles :  C(1) O(1) H1(1) H2(1)

    C  0.0000000000e+00  0.0000000000e+00 -1.1394765782e+00
    O  0.0000000000e+00  0.0000000000e+00  1.1440287480e+00
    H1  0.0000000000e+00  1.7662761033e+00 -2.2339863698e+00
    H2  0.0000000000e+00 -1.7662761033e+00 -2.2339863698e+00

  Distance table for similar particles (A-A):
    source/target: ion0
    Using structure-of-arrays (SoA) data layout
    Distance computations use open boundary conditions in 3D.


  Hamiltonian h0
  Kinetic         Kinetic energy
  ElecElec        CoulombAA source/target e

  LocalECP        LocalECPotential: ion0
  NonLocalECP     NonLocalECPotential: ion0
  IonIon          CoulombAA source/target ion0


Loop execution max-interations = 40
Inside LM engine constructor, num_params is: 0 and _total_num_params is: 0

=========================================================
  Start QMCFixedSampleLinearOptimize
  File Root FORM.s000 append = no 
=========================================================
  Skip QMCDriver::putQMCInfo 
  Resetting Properties of the walkers 1 x 15
  Adding 1 walkers to 0 existing sets
  Total number of walkers: 1.2800000000e+02
  Total weight: 1.2800000000e+02

=========================================================
  Start VMC
  File Root FORM.s000 append = no 
=========================================================
Resetting walkers
  Using the current 1 walkers.
  Total number of walkers: 1.2800000000e+02
  Total weight: 1.2800000000e+02
  Resetting Properties of the walkers 1 x 15

<vmc function="put">
  qmc_counter=0  my_counter=0
  time step      = 5.0000000000e-02
  blocks         = 125
  steps          = 125
  substeps       = 10
  current        = 0
  target samples = 2.0000000000e+06
  walkers/mpi    = 1

  stepsbetweensamples = 1
<parameter name="blocks" condition="int">125</parameter>
<parameter name="blocks_between_recompute" condition="int">0</parameter>
<parameter name="check_properties" condition="int">100</parameter>
<parameter name="checkproperties" condition="int">100</parameter>
<parameter name="current" condition="int">0</parameter>
<parameter name="dmcwalkersperthread" condition="real">1.5625000000e+04</parameter>
<parameter name="fermionicweight" condition="real">1.0000000000e-04</parameter>
<parameter name="jastrowweight" condition="real">0.0000000000e+00</parameter>
<parameter name="maxcpusecs" condition="real">3.6000000000e+05</parameter>
<parameter name="mg_beta" condition="real">0.0000000000e+00</parameter>
<parameter name="mg_gamma" condition="real">0.0000000000e+00</parameter>
<parameter name="modifiedguiding" condition="string">ParameterDerivativeAdjusted</parameter>
<parameter name="orboptweight" condition="real">0.0000000000e+00</parameter>
<parameter name="record_configs" condition="int">0</parameter>
<parameter name="record_walkers" condition="int">1</parameter>
<parameter name="recordconfigs" condition="int">0</parameter>
<parameter name="recordwalkers" condition="int">1</parameter>
<parameter name="rewind" condition="int">0</parameter>
<parameter name="samples" condition="real">2.0000000000e+06</parameter>
<parameter name="samplesperthread" condition="real">1.5625000000e+04</parameter>
<parameter name="steps" condition="int">125</parameter>
<parameter name="stepsbetweensamples" condition="int">1</parameter>
<parameter name="store_configs" condition="int">0</parameter>
<parameter name="storeconfigs" condition="int">0</parameter>
<parameter name="sub_steps" condition="int">10</parameter>
<parameter name="substeps" condition="int">10</parameter>
<parameter name="tau" condition="au">5.0000000000e-02</parameter>
<parameter name="time_step" condition="au">5.0000000000e-02</parameter>
<parameter name="timestep" condition="au">5.0000000000e-02</parameter>
<parameter name="use_drift" condition="string">no</parameter>
<parameter name="usedrift" condition="string">no</parameter>
<parameter name="walkers" condition="int">1</parameter>
<parameter name="warmup_steps" condition="int">1000</parameter>
<parameter name="warmupsteps" condition="int">1000</parameter>
  DumpConfig==false Nothing (configurations, state) will be saved.
  Walker Samples are dumped every 1 steps.
</vmc>
  Set drift_modifier UNR parameter a = 1.0000000000e+00
  EstimatorManagerBase::add replace LocalEnergy estimator.
 Using QMCCostFunction::QMCCostFunction
   Going to include the derivatives of NonLocalECP
 Using Default Cost Function: Cost = <|E-E_ff|^2>
  Set drift_modifier UNR parameter a = 1.0000000000e+00
  EstimatorManagerBase::add replace LocalEnergy estimator.
Double check: filter_param_: 0 and ratio_threshold_: 0.0000000000e+00
Allocating full size _hmat_temp and _smat_temp
Inside LM engine's get_param, num_params is: 60
Now doing initialize, nblock: 1, nkeps: 1
Start of engine's reset
Before block part of reset
end of engine's reset
entering engine_start function
<optimization-report>
<vmc stage="main" blocks="125">
  Initial partition of walkers 0 1 
Using ParameterDeriv Adjusted Guiding Function

  Using Particle by Particle moves
  Walker moves without drift
  Total Sample Size   =2000000
  Walker distribution on root = 0 1 
  Using Locality Approximation
  Anonymous Buffer size per walker : 30888 Bytes.
MEMORY increase 0 MB VMC::resetRun
====================================================
  SimpleFixedNodeBranch::finalize after a VMC block
    QMC counter        = 0
    time step          = 0.05
    reference energy   = -22.4598
    reference variance = 0.428232
====================================================
  Execution time = 7.6835e+01
</vmc>
<opt stage="setup">
  <log>
     Reading configurations from h5FileRoot FORM.s000
  QMCCostFunction is created with 1 threads.
  Using Nonlocal PP in Opt: NonLocalECP
   Number of samples loaded to each thread : 15625 
Value of Filter Bool: false before_first_block_sample: true onDescentStep: false
Before engine_checkConfigurations
Double check filter inside engine_checkConfig: false
 w_tot 1.5625e+04
  VMC Eavg = -2.2437e+01
  VMC Evar = 5.7156e-01
  Total weights = 2.000000000e+06
Before sample_finish
calling setComputed function
After engine_checkConfig
  Execution time = 2.4965e+01
  </log>
</opt>
<opt stage="main" walkers="15625">
  <log>
Restored printouts from recurive_blocking in energy_target_accu

Crude block analysis of variance gives:     variance =       0.571685183130
                                         uncertainty =       0.008266455589

Now for a blocking analysis of energy uncertainty:

energy and target function accumulation statistics:


Restored printouts from recurive_blocking in energy_target_accu

Crude block analysis of variance gives:     variance =       0.571685183130
                                         uncertainty =       0.008266455589

Now for a blocking analysis of energy uncertainty:

  error estimate for blocks of size 2^( 1) =       0.000534583842
  error estimate for blocks of size 2^( 2) =       0.000554726881
  error estimate for blocks of size 2^( 3) =       0.000572137948
  error estimate for blocks of size 2^( 4) =       0.000586116656
  error estimate for blocks of size 2^( 5) =       0.000596932398
  error estimate for blocks of size 2^( 6) =       0.000600528027
  error estimate for blocks of size 2^( 7) =       0.000603660818

      target function =                  N/A
              le_mean =     -22.437473222076
             les_mean =     504.011764073158
             stat err =       0.000596809475
             autocorr =       1.246349267855
              std dev =       0.756015719126
             le_variance =       0.571559767565


*************************************************************************************************
Solving the linear method equations on the initial sample with initial energy-2.243747322208e+01 
*************************************************************************************************


*********************************************************
Solving the linear method equations on the initial sample
*********************************************************

Inside this version of call_engine, dep_ptr->n_tot(): 60
Check correct_vf_var_size: 183, current size: 0
Inside version of engine_update_build_matrix that takes matrices hh and ss as input
solving harmonic davidson linear method for identity shift 2.5000e-01, overlap shift 2.5000e+00 and omega 0.0000e+00

iteration solving starts here(engine) 


davidson iteration    0:   krylov dim =   1   energy =     -22.437473222076       residual = 1.60e-05           smallest_sin_value = 1.00e+00
davidson iteration    1:   krylov dim =   2   energy =     -22.437472618043       residual = 9.77e-06           smallest_sin_value = 1.00e+00
davidson iteration    2:   krylov dim =   3   energy =     -22.437474371196       residual = 4.04e-06           smallest_sin_value = 1.00e+00
davidson iteration    3:   krylov dim =   4   energy =     -22.437473590503       residual = 1.30e-06           smallest_sin_value = 1.00e+00
davidson iteration    4:   krylov dim =   5   energy =     -22.437473624189       residual = 1.25e-06           smallest_sin_value = 1.00e+00
davidson iteration    5:   krylov dim =   6   energy =     -22.437474444576       residual = 5.20e-07           smallest_sin_value = 1.00e+00
davidson iteration    6:   krylov dim =   7   energy =     -22.437474274157       residual = 2.56e-07           smallest_sin_value = 1.00e+00
davidson iteration    7:   krylov dim =   8   energy =     -22.437473354575       residual = 1.77e-07           smallest_sin_value = 1.00e+00
davidson iteration    8:   krylov dim =   9   energy =     -22.437473881590       residual = 1.16e-07           smallest_sin_value = 1.00e+00
davidson iteration    9:   krylov dim =  10   energy =     -22.437474334049       residual = 5.44e-08           smallest_sin_value = 1.00e+00
davidson iteration   10:   krylov dim =  11   energy =     -22.437474360012       residual = 3.54e-08           smallest_sin_value = 1.00e+00
davidson iteration   11:   krylov dim =  12   energy =     -22.437474269386       residual = 1.82e-08           smallest_sin_value = 1.00e+00
davidson iteration   12:   krylov dim =  13   energy =     -22.437474261657       residual = 1.07e-08           smallest_sin_value = 1.00e+00
davidson iteration   13:   krylov dim =  14   energy =     -22.437474316960       residual = 2.30e-09           smallest_sin_value = 1.00e+00
davidson solver converged in         13 iterations

On rank 0, check n_tot: 61 and evec_eigen.size(): 61
The largest weight on the derivative vector for shift 2.5000e-01 is 6.238968e-04

solving harmonic davidson linear method for identity shift 1.0000e+00, overlap shift 1.0000e+01 and omega 0.0000e+00

iteration solving starts here(engine) 


davidson iteration    0:   krylov dim =   1   energy =     -22.437473222076       residual = 1.60e-05           smallest_sin_value = 1.00e+00
davidson iteration    1:   krylov dim =   2   energy =     -22.437473006670       residual = 1.22e-05           smallest_sin_value = 1.00e+00
davidson iteration    2:   krylov dim =   3   energy =     -22.437473704954       residual = 5.04e-06           smallest_sin_value = 1.00e+00
davidson iteration    3:   krylov dim =   4   energy =     -22.437473367553       residual = 1.64e-06           smallest_sin_value = 1.00e+00
davidson iteration    4:   krylov dim =   5   energy =     -22.437473241397       residual = 1.14e-06           smallest_sin_value = 1.00e+00
davidson iteration    5:   krylov dim =   6   energy =     -22.437473530360       residual = 4.78e-07           smallest_sin_value = 1.00e+00
davidson iteration    6:   krylov dim =   7   energy =     -22.437473517430       residual = 1.28e-07           smallest_sin_value = 1.00e+00
davidson iteration    7:   krylov dim =   8   energy =     -22.437473244470       residual = 9.01e-08           smallest_sin_value = 1.00e+00
davidson iteration    8:   krylov dim =   9   energy =     -22.437473343502       residual = 4.47e-08           smallest_sin_value = 1.00e+00
davidson iteration    9:   krylov dim =  10   energy =     -22.437473492099       residual = 1.27e-08           smallest_sin_value = 1.00e+00
davidson iteration   10:   krylov dim =  11   energy =     -22.437473491697       residual = 9.66e-09           smallest_sin_value = 1.00e+00
davidson solver converged in         10 iterations

On rank 0, check n_tot: 61 and evec_eigen.size(): 61
The largest weight on the derivative vector for shift 1.0000e+00 is 1.606134e-04

solving harmonic davidson linear method for identity shift 4.0000e+00, overlap shift 4.0000e+01 and omega 0.0000e+00

iteration solving starts here(engine) 


davidson iteration    0:   krylov dim =   1   energy =     -22.437473222076       residual = 1.60e-05           smallest_sin_value = 1.00e+00
davidson iteration    1:   krylov dim =   2   energy =     -22.437473161798       residual = 1.33e-05           smallest_sin_value = 1.00e+00
davidson iteration    2:   krylov dim =   3   energy =     -22.437473368424       residual = 5.73e-06           smallest_sin_value = 1.00e+00
davidson iteration    3:   krylov dim =   4   energy =     -22.437473266559       residual = 1.91e-06           smallest_sin_value = 1.00e+00
davidson iteration    4:   krylov dim =   5   energy =     -22.437473210299       residual = 1.20e-06           smallest_sin_value = 1.00e+00
davidson iteration    5:   krylov dim =   6   energy =     -22.437473277032       residual = 4.53e-07           smallest_sin_value = 1.00e+00
davidson iteration    6:   krylov dim =   7   energy =     -22.437473286316       residual = 1.10e-07           smallest_sin_value = 1.00e+00
davidson iteration    7:   krylov dim =   8   energy =     -22.437473218812       residual = 5.50e-08           smallest_sin_value = 1.00e+00
davidson iteration    8:   krylov dim =   9   energy =     -22.437473240781       residual = 3.42e-08           smallest_sin_value = 1.00e+00
davidson iteration    9:   krylov dim =  10   energy =     -22.437473270566       residual = 5.36e-09           smallest_sin_value = 1.00e+00
davidson solver converged in          9 iterations

On rank 0, check n_tot: 61 and evec_eigen.size(): 61
The largest weight on the derivative vector for shift 4.0000e+00 is 4.855254e-05

About to broadcast update vector

Printing all timers used during this execution:
  eigen solver                               0.143469 seconds

After print_timers
After EngineObj->wfn_update_compute(), N is: 61 and numParams is: 60

************************************************************
Updating the guiding function with the middle shift's update
************************************************************

  Execution time = 1.0195e+02
  </log>
  <optVariables href="FORM.s000.opt.xml">
uu_0  2.741540e-01                 1 1 ON  0
uu_1  9.878641e-02                 1 1 ON  1
uu_2  -1.786547e-02                1 1 ON  2
uu_3  -8.850846e-02                1 1 ON  3
uu_4  -1.302159e-01                1 1 ON  4
uu_5  -1.554995e-01                1 1 ON  5
uu_6  -1.684100e-01                1 1 ON  6
uu_7  -1.686701e-01                1 1 ON  7
uu_8  -1.533112e-01                1 1 ON  8
uu_9  -1.134709e-01                1 1 ON  9
ud_0  4.682732e-01                 1 1 ON  10
ud_1  1.837015e-01                 1 1 ON  11
ud_2  3.283344e-02                 1 1 ON  12
ud_3  -5.223588e-02                1 1 ON  13
ud_4  -1.027310e-01                1 1 ON  14
ud_5  -1.363796e-01                1 1 ON  15
ud_6  -1.573298e-01                1 1 ON  16
ud_7  -1.657744e-01                1 1 ON  17
ud_8  -1.566691e-01                1 1 ON  18
ud_9  -1.258770e-01                1 1 ON  19
eC_0  -6.751445e-01                1 1 ON  20
eC_1  -5.012182e-01                1 1 ON  21
eC_2  -1.988202e-01                1 1 ON  22
eC_3  2.130399e-02                 1 1 ON  23
eC_4  1.646339e-01                 1 1 ON  24
eC_5  2.848276e-01                 1 1 ON  25
eC_6  2.995345e-01                 1 1 ON  26
eC_7  3.275018e-01                 1 1 ON  27
eC_8  2.286086e-01                 1 1 ON  28
eC_9  5.029195e-02                 1 1 ON  29
eO_0  -1.212097e+00                1 1 ON  30
eO_1  -8.193896e-01                1 1 ON  31
eO_2  -3.257480e-01                1 1 ON  32
eO_3  1.067965e-03                 1 1 ON  33
eO_4  2.270488e-01                 1 1 ON  34
eO_5  3.688545e-01                 1 1 ON  35
eO_6  4.049060e-01                 1 1 ON  36
eO_7  4.324371e-01                 1 1 ON  37
eO_8  4.458411e-01                 1 1 ON  38
eO_9  3.335127e-01                 1 1 ON  39
eH1_0 -1.641308e-01                1 1 ON  40
eH1_1 -6.391430e-02                1 1 ON  41
eH1_2 -4.267025e-02                1 1 ON  42
eH1_3 -4.056335e-02                1 1 ON  43
eH1_4 -2.827536e-03                1 1 ON  44
eH1_5 8.392825e-03                 1 1 ON  45
eH1_6 3.798519e-02                 1 1 ON  46
eH1_7 4.572082e-02                 1 1 ON  47
eH1_8 3.044390e-02                 1 1 ON  48
eH1_9 8.896177e-02                 1 1 ON  49
eH2_0 -1.673192e-01                1 1 ON  50
eH2_1 -6.679177e-02                1 1 ON  51
eH2_2 -4.596993e-02                1 1 ON  52
eH2_3 -4.365463e-02                1 1 ON  53
eH2_4 -5.651089e-03                1 1 ON  54
eH2_5 5.972731e-03                 1 1 ON  55
eH2_6 3.582450e-02                 1 1 ON  56
eH2_7 4.274924e-02                 1 1 ON  57
eH2_8 2.708383e-02                 1 1 ON  58
eH2_9 9.315921e-02                 1 1 ON  59
  </optVariables>
eC
Array
eH1
Array
eH2
Array
eO
Array
ud
Array
uu
Array
   Restore the number of walkers to 1, removing 0 walkers.
</opt>
</optimization-report>

*************************************************************
Generating a new sample based on the updated guiding function
*************************************************************

<optimization-report>
<vmc stage="main" blocks="125">
  Cannot make clones again. Use existing 1 clones
  Initial partition of walkers 0 1 
  Using Particle by Particle moves
  Walker moves without drift
  Total Sample Size   =2000000
  Walker distribution on root = 0 1 
  Using Locality Approximation
====================================================
  SimpleFixedNodeBranch::finalize after a VMC block
    QMC counter        = 0
    time step          = 0.05
    reference energy   = -22.5009
    reference variance = 0.30759
====================================================
  Execution time = 7.7173e+01
</vmc>
<opt stage="setup">
  <log>
   Reading configurations from h5FileRoot FORM.s000
  Using Nonlocal PP in Opt: NonLocalECP
   Number of samples loaded to each thread : 15625 
  VMC Eavg = -2.2437e+01
  VMC Evar = 5.6835e-01
  Total weights = 2.0000e+06
  Execution time = 6.5467e+00
  </log>
</opt>
<opt stage="main" walkers="15625">
  <log>

******************************************************************
Comparing different shifts' cost function values on updated sample
******************************************************************

Start of engine's reset
Before block part of reset
end of engine's reset
Restored printouts from recurive_blocking in energy_target_accu

Crude block analysis of variance gives:     variance =       0.568436169510
                                         uncertainty =       0.004240954733

Now for a blocking analysis of energy uncertainty:

energy and target function accumulation statistics:


Restored printouts from recurive_blocking in energy_target_accu

Crude block analysis of variance gives:     variance =       0.568436169510
                                         uncertainty =       0.004240954733

Now for a blocking analysis of energy uncertainty:

  error estimate for blocks of size 2^( 1) =       0.000533066310
  error estimate for blocks of size 2^( 2) =       0.000552499613
  error estimate for blocks of size 2^( 3) =       0.000571041219
  error estimate for blocks of size 2^( 4) =       0.000585155012
  error estimate for blocks of size 2^( 5) =       0.000593686209
  error estimate for blocks of size 2^( 6) =       0.000596607853
  error estimate for blocks of size 2^( 7) =       0.000600497294

      target function =                  N/A
              le_mean =     -22.436509760030
             les_mean =     503.965289309396
             stat err =       0.000593986592
             autocorr =       1.241626039153
              std dev =       0.753869605196
             le_variance =       0.568319381638

Start of engine's reset
Before block part of reset
end of engine's reset
Restored printouts from recurive_blocking in energy_target_accu

Crude block analysis of variance gives:     variance =       0.568589014689
                                         uncertainty =       0.004238737041

Now for a blocking analysis of energy uncertainty:

energy and target function accumulation statistics:


Restored printouts from recurive_blocking in energy_target_accu

Crude block analysis of variance gives:     variance =       0.568589014689
                                         uncertainty =       0.004238737041

Now for a blocking analysis of energy uncertainty:

  error estimate for blocks of size 2^( 1) =       0.000533137947
  error estimate for blocks of size 2^( 2) =       0.000552564566
  error estimate for blocks of size 2^( 3) =       0.000571094947
  error estimate for blocks of size 2^( 4) =       0.000585199017
  error estimate for blocks of size 2^( 5) =       0.000593719956
  error estimate for blocks of size 2^( 6) =       0.000596643210
  error estimate for blocks of size 2^( 7) =       0.000600533933

      target function =                  N/A
              le_mean =     -22.436508473836
             les_mean =     503.965384352495
             stat err =       0.000594024029
             autocorr =       1.241448866715
              std dev =       0.753970914696
             le_variance =       0.568472140208

Start of engine's reset
Before block part of reset
end of engine's reset
Restored printouts from recurive_blocking in energy_target_accu

Crude block analysis of variance gives:     variance =       0.568508235480
                                         uncertainty =       0.004238478921

Now for a blocking analysis of energy uncertainty:

energy and target function accumulation statistics:


Restored printouts from recurive_blocking in energy_target_accu

Crude block analysis of variance gives:     variance =       0.568508235480
                                         uncertainty =       0.004238478921

Now for a blocking analysis of energy uncertainty:

  error estimate for blocks of size 2^( 1) =       0.000533100081
  error estimate for blocks of size 2^( 2) =       0.000552528562
  error estimate for blocks of size 2^( 3) =       0.000571061640
  error estimate for blocks of size 2^( 4) =       0.000585167763
  error estimate for blocks of size 2^( 5) =       0.000593691116
  error estimate for blocks of size 2^( 6) =       0.000596616138
  error estimate for blocks of size 2^( 7) =       0.000600506394

      target function =                  N/A
              le_mean =     -22.436508453065
             les_mean =     503.965302672391
             stat err =       0.000593995353
             autocorr =       1.241505357334
              std dev =       0.753917364244
             le_variance =       0.568391392108

Start of engine's reset
Before block part of reset
end of engine's reset
Restored printouts from recurive_blocking in energy_target_accu

Crude block analysis of variance gives:     variance =       0.568439921677
                                         uncertainty =       0.004240530165

Now for a blocking analysis of energy uncertainty:

energy and target function accumulation statistics:


Restored printouts from recurive_blocking in energy_target_accu

Crude block analysis of variance gives:     variance =       0.568439921677
                                         uncertainty =       0.004240530165

Now for a blocking analysis of energy uncertainty:

  error estimate for blocks of size 2^( 1) =       0.000533068066
  error estimate for blocks of size 2^( 2) =       0.000552500665
  error estimate for blocks of size 2^( 3) =       0.000571041067
  error estimate for blocks of size 2^( 4) =       0.000585153759
  error estimate for blocks of size 2^( 5) =       0.000593683846
  error estimate for blocks of size 2^( 6) =       0.000596606287
  error estimate for blocks of size 2^( 7) =       0.000600495699

      target function =                  N/A
              le_mean =     -22.436509404345
             les_mean =     503.965277093658
             stat err =       0.000593984898
             autocorr =       1.241610774902
              std dev =       0.753872088995
             le_variance =       0.568323126566


        shift_i        shift_s       max param change    cost function value
   ------------   ------------   --------------------   --------------------
            N/A            N/A                    N/A       -22.436509760030        initial  <--
     2.5000e-01     2.5000e+00             6.2390e-04       -22.436508473836
     1.0000e+00     1.0000e+01             1.6061e-04       -22.436508453065
     4.0000e+00     4.0000e+01             4.8553e-05       -22.436509404345

***********************************************************
Reverting to old parameters and increasing shift magnitudes
***********************************************************

  Execution time = 109.9751
  </log>
  <optVariables href="FORM.s000.opt.xml">
 uu_0                 2.742407e-01 1 1  ON 0
 uu_1                 9.880689e-02 1 1  ON 1
 uu_2                -1.788140e-02 1 1  ON 2
 uu_3                -8.848323e-02 1 1  ON 3
 uu_4                -1.302259e-01 1 1  ON 4
 uu_5                -1.554929e-01 1 1  ON 5
 uu_6                -1.684049e-01 1 1  ON 6
 uu_7                -1.686773e-01 1 1  ON 7
 uu_8                -1.533121e-01 1 1  ON 8
 uu_9                -1.134818e-01 1 1  ON 9
 ud_0                 4.682842e-01 1 1  ON 10
 ud_1                 1.836110e-01 1 1  ON 11
 ud_2                 3.285803e-02 1 1  ON 12
 ud_3                -5.221566e-02 1 1  ON 13
 ud_4                -1.027339e-01 1 1  ON 14
 ud_5                -1.363653e-01 1 1  ON 15
 ud_6                -1.574329e-01 1 1  ON 16
 ud_7                -1.657376e-01 1 1  ON 17
 ud_8                -1.566111e-01 1 1  ON 18
 ud_9                -1.259104e-01 1 1  ON 19
 eC_0                -6.751847e-01 1 1  ON 20
 eC_1                -5.011759e-01 1 1  ON 21
 eC_2                -1.988049e-01 1 1  ON 22
 eC_3                 2.141487e-02 1 1  ON 23
 eC_4                 1.646511e-01 1 1  ON 24
 eC_5                 2.848997e-01 1 1  ON 25
 eC_6                 2.994933e-01 1 1  ON 26
 eC_7                 3.274885e-01 1 1  ON 27
 eC_8                 2.284963e-01 1 1  ON 28
 eC_9                 5.024826e-02 1 1  ON 29
 eO_0                -1.211936e+00 1 1  ON 30
 eO_1                -8.193689e-01 1 1  ON 31
 eO_2                -3.257415e-01 1 1  ON 32
 eO_3                 1.122829e-03 1 1  ON 33
 eO_4                 2.270299e-01 1 1  ON 34
 eO_5                 3.689895e-01 1 1  ON 35
 eO_6                 4.049026e-01 1 1  ON 36
 eO_7                 4.324017e-01 1 1  ON 37
 eO_8                 4.457876e-01 1 1  ON 38
 eO_9                 3.333628e-01 1 1  ON 39
eH1_0                -1.640836e-01 1 1  ON 40
eH1_1                -6.399559e-02 1 1  ON 41
eH1_2                -4.257512e-02 1 1  ON 42
eH1_3                -4.057066e-02 1 1  ON 43
eH1_4                -2.684417e-03 1 1  ON 44
eH1_5                 8.269671e-03 1 1  ON 45
eH1_6                 3.791560e-02 1 1  ON 46
eH1_7                 4.572483e-02 1 1  ON 47
eH1_8                 3.048808e-02 1 1  ON 48
eH1_9                 8.898375e-02 1 1  ON 49
eH2_0                -1.673462e-01 1 1  ON 50
eH2_1                -6.686044e-02 1 1  ON 51
eH2_2                -4.594370e-02 1 1  ON 52
eH2_3                -4.368837e-02 1 1  ON 53
eH2_4                -5.530957e-03 1 1  ON 54
eH2_5                 5.831498e-03 1 1  ON 55
eH2_6                 3.589556e-02 1 1  ON 56
eH2_7                 4.285226e-02 1 1  ON 57
eH2_8                 2.707329e-02 1 1  ON 58
eH2_9                 9.318316e-02 1 1  ON 59
  </optVariables>
eC
Array
eH1
Array
eH2
Array
eO
Array
ud
Array
uu
Array
   Restore the number of walkers to 1, removing 0 walkers.
</opt>
</optimization-report>
  QMC Execution time = 2.1193e+02 secs
  Reusing QMCFixedSampleLinearOptimize
 Using QMCCostFunction::QMCCostFunction
   Going to include the derivatives of NonLocalECP
 Using Default Cost Function: Cost = <|E-E_ff|^2>

=========================================================
  Start QMCFixedSampleLinearOptimize
  File Root FORM.s001 append = no 
=========================================================
  Skip QMCDriver::putQMCInfo 
  Resetting Properties of the walkers 1 x 15

=========================================================
  Start VMC
  File Root FORM.s001 append = no 
=========================================================
Using existing walkers 
  Resetting Properties of the walkers 1 x 15

<vmc function="put">
  qmc_counter=1  my_counter=0
  time step      = 5.0000e-02
  blocks         = 125
  steps          = 125
  substeps       = 10
  current        = 0
  target samples = 2.0000e+06
  walkers/mpi    = 1

  stepsbetweensamples = 1
<parameter name="blocks" condition="int">125</parameter>
<parameter name="blocks_between_recompute" condition="int">0</parameter>
<parameter name="check_properties" condition="int">100</parameter>
<parameter name="checkproperties" condition="int">100</parameter>
<parameter name="current" condition="int">0</parameter>
<parameter name="dmcwalkersperthread" condition="real">1.5625e+04</parameter>
<parameter name="fermionicweight" condition="real">1.0000e-04</parameter>
<parameter name="jastrowweight" condition="real">0.0000e+00</parameter>
<parameter name="maxcpusecs" condition="real">3.6000e+05</parameter>
<parameter name="mg_beta" condition="real">0.0000e+00</parameter>
<parameter name="mg_gamma" condition="real">0.0000e+00</parameter>
<parameter name="modifiedguiding" condition="string">ParameterDerivativeAdjusted</parameter>
<parameter name="orboptweight" condition="real">0.0000e+00</parameter>
<parameter name="record_configs" condition="int">0</parameter>
<parameter name="record_walkers" condition="int">1</parameter>
<parameter name="recordconfigs" condition="int">0</parameter>
<parameter name="recordwalkers" condition="int">1</parameter>
<parameter name="rewind" condition="int">0</parameter>
<parameter name="samples" condition="real">2.0000e+06</parameter>
<parameter name="samplesperthread" condition="real">1.5625e+04</parameter>
<parameter name="steps" condition="int">125</parameter>
<parameter name="stepsbetweensamples" condition="int">1</parameter>
<parameter name="store_configs" condition="int">0</parameter>
<parameter name="storeconfigs" condition="int">0</parameter>
<parameter name="sub_steps" condition="int">10</parameter>
<parameter name="substeps" condition="int">10</parameter>
<parameter name="tau" condition="au">5.0000e-02</parameter>
<parameter name="time_step" condition="au">5.0000e-02</parameter>
<parameter name="timestep" condition="au">5.0000e-02</parameter>
<parameter name="use_drift" condition="string">no</parameter>
<parameter name="usedrift" condition="string">no</parameter>
<parameter name="walkers" condition="int">1</parameter>
<parameter name="warmup_steps" condition="int">1000</parameter>
<parameter name="warmupsteps" condition="int">1000</parameter>
  DumpConfig==false Nothing (configurations, state) will be saved.
  Walker Samples are dumped every 1 steps.
</vmc>
    Restarting, cummulative properties:
      energy     = -2.2480e+01
      variance   = 0.0000e+00
      r2accepted = 1.0000e-10
      r2proposed = 1.0000e-10
  Set drift_modifier UNR parameter a = 1.0000e+00
  EstimatorManagerBase::add replace LocalEnergy estimator.
 Using QMCCostFunction::QMCCostFunction
   Going to include the derivatives of NonLocalECP
 Using Default Cost Function: Cost = <|E-E_ff|^2>
  Set drift_modifier UNR parameter a = 1.0000e+00
  EstimatorManagerBase::add replace LocalEnergy estimator.
  EstimatorManagerBase::add replace LocalEnergy estimator.
Double check: filter_param_: false and ratio_threshold_: 0.0000e+00
Now doing initialize, nblock: 1, nkeps: 1
Start of engine's reset
Before block part of reset
end of engine's reset
entering engine_start function
<optimization-report>
<vmc stage="main" blocks="125">
  Cannot make clones again. Use existing 1 clones
  Initial partition of walkers 0 1 
Using ParameterDeriv Adjusted Guiding Function

  Using Particle by Particle moves
  Walker moves without drift
  Total Sample Size   =2000000
  Walker distribution on root = 0 1 
  Using Locality Approximation
  Anonymous Buffer size per walker : 30888 Bytes.
MEMORY increase 0 MB VMC::resetRun
====================================================
  SimpleFixedNodeBranch::finalize after a VMC block
    QMC counter        = 1
    time step          = 0.05
    reference energy   = -22.2818
    reference variance = 0.351818
====================================================
  Execution time = 7.6135e+01
</vmc>
<opt stage="setup">
  <log>
     Reading configurations from h5FileRoot FORM.s001
  QMCCostFunction is created with 1 threads.
  Using Nonlocal PP in Opt: NonLocalECP
   Number of samples loaded to each thread : 15625 
Value of Filter Bool: false before_first_block_sample: true onDescentStep: false
Before engine_checkConfigurations
Double check filter inside engine_checkConfig: false
 w_tot 1.5625e+04
  VMC Eavg = -2.2437e+01
  VMC Evar = 5.6686e-01
  Total weights = 2.000000000e+06
Before sample_finish
calling setComputed function
After engine_checkConfig
  Execution time = 2.5572e+01
  </log>
</opt>
<opt stage="main" walkers="15625">
  <log>
Restored printouts from recurive_blocking in energy_target_accu

Crude block analysis of variance gives:     variance =       0.566912847717
                                         uncertainty =       0.005199804628

Now for a blocking analysis of energy uncertainty:

energy and target function accumulation statistics:


Restored printouts from recurive_blocking in energy_target_accu

Crude block analysis of variance gives:     variance =       0.566912847717
                                         uncertainty =       0.005199804628

Now for a blocking analysis of energy uncertainty:

  error estimate for blocks of size 2^( 1) =       0.000532381740
  error estimate for blocks of size 2^( 2) =       0.000551899408
  error estimate for blocks of size 2^( 3) =       0.000569977550
  error estimate for blocks of size 2^( 4) =       0.000584799862
  error estimate for blocks of size 2^( 5) =       0.000592697029
  error estimate for blocks of size 2^( 6) =       0.000595545722
  error estimate for blocks of size 2^( 7) =       0.000597375260

      target function =                  N/A
              le_mean =     -22.436813259402
             les_mean =     503.977449588774
             stat err =       0.000592604468
             autocorr =       1.239034901795
              std dev =       0.752901477578
             le_variance =       0.566860634939


*************************************************************************************************
Solving the linear method equations on the initial sample with initial energy -2.243681325940e+01
*************************************************************************************************


*********************************************************
Solving the linear method equations on the initial sample
*********************************************************

Inside this version of call_engine, dep_ptr->n_tot(): 60
Check correct_vf_var_size: 183, current size: 0
Inside version of engine_update_build_matrix that takes matrices hh and ss as input
solving harmonic davidson linear method for identity shift 2.5000e+00, overlap shift 2.5000e+01 and omega 0.0000e+00

iteration solving starts here(engine) 


davidson iteration    0:   krylov dim =   1   energy =     -22.436813259402       residual = 4.52e-06           smallest_sin_value = 1.00e+00
davidson iteration    1:   krylov dim =   2   energy =     -22.436813401727       residual = 2.36e-06           smallest_sin_value = 1.00e+00
davidson iteration    2:   krylov dim =   3   energy =     -22.436813548307       residual = 2.66e-06           smallest_sin_value = 1.00e+00
davidson iteration    3:   krylov dim =   4   energy =     -22.436813648780       residual = 1.14e-06           smallest_sin_value = 1.00e+00
davidson iteration    4:   krylov dim =   5   energy =     -22.436813858345       residual = 7.15e-07           smallest_sin_value = 1.00e+00
davidson iteration    5:   krylov dim =   6   energy =     -22.436813731170       residual = 2.41e-07           smallest_sin_value = 1.00e+00
davidson iteration    6:   krylov dim =   7   energy =     -22.436813737872       residual = 1.12e-07           smallest_sin_value = 1.00e+00
davidson iteration    7:   krylov dim =   8   energy =     -22.436813753379       residual = 2.71e-08           smallest_sin_value = 1.00e+00
davidson iteration    8:   krylov dim =   9   energy =     -22.436813795158       residual = 1.91e-08           smallest_sin_value = 1.00e+00
davidson iteration    9:   krylov dim =  10   energy =     -22.436813824074       residual = 4.13e-09           smallest_sin_value = 1.00e+00
davidson solver converged in          9 iterations

On rank 0, check n_tot: 61 and evec_eigen.size(): 61
The largest weight on the derivative vector for shift 2.5000e+00 is 6.434494e-05

solving harmonic davidson linear method for identity shift 1.0000e+01, overlap shift 1.0000e+02 and omega 0.0000e+00

iteration solving starts here(engine) 


davidson iteration    0:   krylov dim =   1   energy =     -22.436813259402       residual = 4.52e-06           smallest_sin_value = 1.00e+00
davidson iteration    1:   krylov dim =   2   energy =     -22.436813297418       residual = 2.45e-06           smallest_sin_value = 1.00e+00
davidson iteration    2:   krylov dim =   3   energy =     -22.436813336661       residual = 2.85e-06           smallest_sin_value = 1.00e+00
davidson iteration    3:   krylov dim =   4   energy =     -22.436813363709       residual = 1.21e-06           smallest_sin_value = 1.00e+00
davidson iteration    4:   krylov dim =   5   energy =     -22.436813422718       residual = 6.72e-07           smallest_sin_value = 1.00e+00
davidson iteration    5:   krylov dim =   6   energy =     -22.436813393082       residual = 2.30e-07           smallest_sin_value = 1.00e+00
davidson iteration    6:   krylov dim =   7   energy =     -22.436813394536       residual = 9.75e-08           smallest_sin_value = 1.00e+00
davidson iteration    7:   krylov dim =   8   energy =     -22.436813396587       residual = 2.10e-08           smallest_sin_value = 1.00e+00
davidson iteration    8:   krylov dim =   9   energy =     -22.436813408533       residual = 1.59e-08           smallest_sin_value = 1.00e+00
davidson iteration    9:   krylov dim =  10   energy =     -22.436813413526       residual = 3.02e-09           smallest_sin_value = 1.00e+00
davidson solver converged in          9 iterations

On rank 0, check n_tot: 61 and evec_eigen.size(): 61
The largest weight on the derivative vector for shift 1.0000e+01 is 1.674018e-05

solving harmonic davidson linear method for identity shift 4.0000e+01, overlap shift 4.0000e+02 and omega 0.0000e+00

iteration solving starts here(engine) 


davidson iteration    0:   krylov dim =   1   energy =     -22.436813259402       residual = 4.52e-06           smallest_sin_value = 1.00e+00
davidson iteration    1:   krylov dim =   2   energy =     -22.436813269071       residual = 2.47e-06           smallest_sin_value = 1.00e+00
davidson iteration    2:   krylov dim =   3   energy =     -22.436813279069       residual = 2.91e-06           smallest_sin_value = 1.00e+00
davidson iteration    3:   krylov dim =   4   energy =     -22.436813285984       residual = 1.23e-06           smallest_sin_value = 1.00e+00
davidson iteration    4:   krylov dim =   5   energy =     -22.436813301232       residual = 6.61e-07           smallest_sin_value = 1.00e+00
davidson iteration    5:   krylov dim =   6   energy =     -22.436813294036       residual = 2.27e-07           smallest_sin_value = 1.00e+00
davidson iteration    6:   krylov dim =   7   energy =     -22.436813294405       residual = 9.42e-08           smallest_sin_value = 1.00e+00
davidson iteration    7:   krylov dim =   8   energy =     -22.436813294808       residual = 1.97e-08           smallest_sin_value = 1.00e+00
davidson iteration    8:   krylov dim =   9   energy =     -22.436813297887       residual = 1.50e-08           smallest_sin_value = 1.00e+00
davidson iteration    9:   krylov dim =  10   energy =     -22.436813298945       residual = 2.77e-09           smallest_sin_value = 1.00e+00
davidson solver converged in          9 iterations

On rank 0, check n_tot: 61 and evec_eigen.size(): 61
The largest weight on the derivative vector for shift 4.0000e+01 is 4.230258e-06

About to broadcast update vector

Printing all timers used during this execution:
  eigen solver                               0.147252 seconds

After print_timers
After EngineObj->wfn_update_compute(), N is: 61 and numParams is: 60

************************************************************
Updating the guiding function with the middle shift's update
************************************************************

  Execution time = 1.0171e+02
  </log>
  <optVariables href="FORM.s001.opt.xml">
 uu_0                 2.742417e-01 1 1  ON 0
 uu_1                 9.881261e-02 1 1  ON 1
 uu_2                -1.788385e-02 1 1  ON 2
 uu_3                -8.848051e-02 1 1  ON 3
 uu_4                -1.302324e-01 1 1  ON 4
 uu_5                -1.554915e-01 1 1  ON 5
 uu_6                -1.684040e-01 1 1  ON 6
 uu_7                -1.686749e-01 1 1  ON 7
 uu_8                -1.533165e-01 1 1  ON 8
 uu_9                -1.134876e-01 1 1  ON 9
 ud_0                 4.682780e-01 1 1  ON 10
 ud_1                 1.836168e-01 1 1  ON 11
 ud_2                 3.285494e-02 1 1  ON 12
 ud_3                -5.220872e-02 1 1  ON 13
 ud_4                -1.027383e-01 1 1  ON 14
 ud_5                -1.363675e-01 1 1  ON 15
 ud_6                -1.574287e-01 1 1  ON 16
 ud_7                -1.657208e-01 1 1  ON 17
 ud_8                -1.566208e-01 1 1  ON 18
 ud_9                -1.259108e-01 1 1  ON 19
 eC_0                -6.751849e-01 1 1  ON 20
 eC_1                -5.011847e-01 1 1  ON 21
 eC_2                -1.988018e-01 1 1  ON 22
 eC_3                 2.141327e-02 1 1  ON 23
 eC_4                 1.646428e-01 1 1  ON 24
 eC_5                 2.848953e-01 1 1  ON 25
 eC_6                 2.994978e-01 1 1  ON 26
 eC_7                 3.274870e-01 1 1  ON 27
 eC_8                 2.285072e-01 1 1  ON 28
 eC_9                 5.025351e-02 1 1  ON 29
 eO_0                -1.211943e+00 1 1  ON 30
 eO_1                -8.193738e-01 1 1  ON 31
 eO_2                -3.257454e-01 1 1  ON 32
 eO_3                 1.124165e-03 1 1  ON 33
 eO_4                 2.270281e-01 1 1  ON 34
 eO_5                 3.689935e-01 1 1  ON 35
 eO_6                 4.048882e-01 1 1  ON 36
 eO_7                 4.324026e-01 1 1  ON 37
 eO_8                 4.457898e-01 1 1  ON 38
 eO_9                 3.333749e-01 1 1  ON 39
eH1_0                -1.640795e-01 1 1  ON 40
eH1_1                -6.399191e-02 1 1  ON 41
eH1_2                -4.258459e-02 1 1  ON 42
eH1_3                -4.056847e-02 1 1  ON 43
eH1_4                -2.699780e-03 1 1  ON 44
eH1_5                 8.276007e-03 1 1  ON 45
eH1_6                 3.791488e-02 1 1  ON 46
eH1_7                 4.572568e-02 1 1  ON 47
eH1_8                 3.048978e-02 1 1  ON 48
eH1_9                 8.898295e-02 1 1  ON 49
eH2_0                -1.673483e-01 1 1  ON 50
eH2_1                -6.686265e-02 1 1  ON 51
eH2_2                -4.595078e-02 1 1  ON 52
eH2_3                -4.368374e-02 1 1  ON 53
eH2_4                -5.529065e-03 1 1  ON 54
eH2_5                 5.837393e-03 1 1  ON 55
eH2_6                 3.589442e-02 1 1  ON 56
eH2_7                 4.284679e-02 1 1  ON 57
eH2_8                 2.707148e-02 1 1  ON 58
eH2_9                 9.318292e-02 1 1  ON 59
  </optVariables>
eC
Array
eH1
Array
eH2
Array
eO
Array
ud
Array
uu
Array
   Restore the number of walkers to 1, removing 0 walkers.
</opt>
</optimization-report>

*************************************************************
Generating a new sample based on the updated guiding function
*************************************************************

<optimization-report>
<vmc stage="main" blocks="125">
  Cannot make clones again. Use existing 1 clones
  Initial partition of walkers 0 1 
  Using Particle by Particle moves
  Walker moves without drift
  Total Sample Size   =2000000
  Walker distribution on root = 0 1 
  Using Locality Approximation
====================================================
  SimpleFixedNodeBranch::finalize after a VMC block
    QMC counter        = 1
    time step          = 0.05
    reference energy   = -22.4675
    reference variance = 0.588129
====================================================
  Execution time = 7.4361e+01
</vmc>
<opt stage="setup">
  <log>
   Reading configurations from h5FileRoot FORM.s001
  Using Nonlocal PP in Opt: NonLocalECP
   Number of samples loaded to each thread : 15625 
  VMC Eavg = -2.2437e+01
  VMC Evar = 5.7106e-01
  Total weights = 2.0000e+06
  Execution time = 6.5652e+00
  </log>
</opt>
<opt stage="main" walkers="15625">
  <log>

******************************************************************
Comparing different shifts' cost function values on updated sample
******************************************************************

Start of engine's reset
Before block part of reset
end of engine's reset
Restored printouts from recurive_blocking in energy_target_accu

Crude block analysis of variance gives:     variance =       0.571142680660
                                         uncertainty =       0.011658982480

Now for a blocking analysis of energy uncertainty:

energy and target function accumulation statistics:


Restored printouts from recurive_blocking in energy_target_accu

Crude block analysis of variance gives:     variance =       0.571142680660
                                         uncertainty =       0.011658982480

Now for a blocking analysis of energy uncertainty:

  error estimate for blocks of size 2^( 1) =       0.000534350216
  error estimate for blocks of size 2^( 2) =       0.000554033312
  error estimate for blocks of size 2^( 3) =       0.000572728034
  error estimate for blocks of size 2^( 4) =       0.000586114571
  error estimate for blocks of size 2^( 5) =       0.000594189091
  error estimate for blocks of size 2^( 6) =       0.000598853113
  error estimate for blocks of size 2^( 7) =       0.000599502183

      target function =                  N/A
              le_mean =     -22.437300563362
             les_mean =     504.003516591685
             stat err =       0.000594664740
             autocorr =       1.238489694924
              std dev =       0.755685322464
             le_variance =       0.571060306587

Start of engine's reset
Before block part of reset
end of engine's reset
Restored printouts from recurive_blocking in energy_target_accu

Crude block analysis of variance gives:     variance =       0.571138648086
                                         uncertainty =       0.011660046180

Now for a blocking analysis of energy uncertainty:

energy and target function accumulation statistics:


Restored printouts from recurive_blocking in energy_target_accu

Crude block analysis of variance gives:     variance =       0.571138648086
                                         uncertainty =       0.011660046180

Now for a blocking analysis of energy uncertainty:

  error estimate for blocks of size 2^( 1) =       0.000534348303
  error estimate for blocks of size 2^( 2) =       0.000554031325
  error estimate for blocks of size 2^( 3) =       0.000572725830
  error estimate for blocks of size 2^( 4) =       0.000586112440
  error estimate for blocks of size 2^( 5) =       0.000594186663
  error estimate for blocks of size 2^( 6) =       0.000598851398
  error estimate for blocks of size 2^( 7) =       0.000599500554

      target function =                  N/A
              le_mean =     -22.437301230263
             les_mean =     504.003542430906
             stat err =       0.000594662764
             autocorr =       1.238490330758
              std dev =       0.755682617830
             le_variance =       0.571056218891

Start of engine's reset
Before block part of reset
end of engine's reset
Restored printouts from recurive_blocking in energy_target_accu

Crude block analysis of variance gives:     variance =       0.571139754725
                                         uncertainty =       0.011659552509

Now for a blocking analysis of energy uncertainty:

energy and target function accumulation statistics:


Restored printouts from recurive_blocking in energy_target_accu

Crude block analysis of variance gives:     variance =       0.571139754725
                                         uncertainty =       0.011659552509

Now for a blocking analysis of energy uncertainty:

  error estimate for blocks of size 2^( 1) =       0.000534348832
  error estimate for blocks of size 2^( 2) =       0.000554031864
  error estimate for blocks of size 2^( 3) =       0.000572726477
  error estimate for blocks of size 2^( 4) =       0.000586113059
  error estimate for blocks of size 2^( 5) =       0.000594187455
  error estimate for blocks of size 2^( 6) =       0.000598851949
  error estimate for blocks of size 2^( 7) =       0.000599501278

      target function =                  N/A
              le_mean =     -22.437300931511
             les_mean =     504.003530153716
             stat err =       0.000594663435
             autocorr =       1.238490679363
              std dev =       0.755683364954
             le_variance =       0.571057348068

Start of engine's reset
Before block part of reset
end of engine's reset
Restored printouts from recurive_blocking in energy_target_accu

Crude block analysis of variance gives:     variance =       0.571142276225
                                         uncertainty =       0.011659054889

Now for a blocking analysis of energy uncertainty:

energy and target function accumulation statistics:


Restored printouts from recurive_blocking in energy_target_accu

Crude block analysis of variance gives:     variance =       0.571142276225
                                         uncertainty =       0.011659054889

Now for a blocking analysis of energy uncertainty:

  error estimate for blocks of size 2^( 1) =       0.000534350025
  error estimate for blocks of size 2^( 2) =       0.000554033111
  error estimate for blocks of size 2^( 3) =       0.000572727820
  error estimate for blocks of size 2^( 4) =       0.000586114363
  error estimate for blocks of size 2^( 5) =       0.000594188868
  error estimate for blocks of size 2^( 6) =       0.000598852954
  error estimate for blocks of size 2^( 7) =       0.000599502066

      target function =                  N/A
              le_mean =     -22.437300610139
             les_mean =     504.003518282115
             stat err =       0.000594664563
             autocorr =       1.238489844729
              std dev =       0.755685052045
             le_variance =       0.571059897884


        shift_i        shift_s       max param change    cost function value
   ------------   ------------   --------------------   --------------------
            N/A            N/A                    N/A       -22.437300563362        initial
     2.5000e+00     2.5000e+01             6.4345e-05       -22.437301230263  <--
     1.0000e+01     1.0000e+02             1.6740e-05       -22.437300931511
     4.0000e+01     4.0000e+02             4.2303e-06       -22.437300610139

*****************************************************************************
Applying the update for shift_i =   2.5000e+00     and shift_s =   2.5000e+01
*****************************************************************************

  Execution time = 1.0721e+02
  </log>
  <optVariables href="FORM.s001.opt.xml">
 uu_0                 2.742458e-01 1 1  ON 0
 uu_1                 9.882712e-02 1 1  ON 1
 uu_2                -1.788876e-02 1 1  ON 2
 uu_3                -8.847507e-02 1 1  ON 3
 uu_4                -1.302486e-01 1 1  ON 4
 uu_5                -1.554889e-01 1 1  ON 5
 uu_6                -1.684009e-01 1 1  ON 6
 uu_7                -1.686686e-01 1 1  ON 7
 uu_8                -1.533293e-01 1 1  ON 8
 uu_9                -1.135047e-01 1 1  ON 9
 ud_0                 4.682644e-01 1 1  ON 10
 ud_1                 1.836302e-01 1 1  ON 11
 ud_2                 3.284916e-02 1 1  ON 12
 ud_3                -5.219290e-02 1 1  ON 13
 ud_4                -1.027486e-01 1 1  ON 14
 ud_5                -1.363745e-01 1 1  ON 15
 ud_6                -1.574169e-01 1 1  ON 16
 ud_7                -1.656732e-01 1 1  ON 17
 ud_8                -1.566483e-01 1 1  ON 18
 ud_9                -1.259120e-01 1 1  ON 19
 eC_0                -6.751855e-01 1 1  ON 20
 eC_1                -5.012098e-01 1 1  ON 21
 eC_2                -1.987931e-01 1 1  ON 22
 eC_3                 2.140789e-02 1 1  ON 23
 eC_4                 1.646187e-01 1 1  ON 24
 eC_5                 2.848825e-01 1 1  ON 25
 eC_6                 2.995109e-01 1 1  ON 26
 eC_7                 3.274825e-01 1 1  ON 27
 eC_8                 2.285394e-01 1 1  ON 28
 eC_9                 5.026897e-02 1 1  ON 29
 eO_0                -1.211961e+00 1 1  ON 30
 eO_1                -8.193897e-01 1 1  ON 31
 eO_2                -3.257565e-01 1 1  ON 32
 eO_3                 1.128736e-03 1 1  ON 33
 eO_4                 2.270215e-01 1 1  ON 34
 eO_5                 3.690047e-01 1 1  ON 35
 eO_6                 4.048462e-01 1 1  ON 36
 eO_7                 4.324052e-01 1 1  ON 37
 eO_8                 4.457963e-01 1 1  ON 38
 eO_9                 3.334108e-01 1 1  ON 39
eH1_0                -1.640676e-01 1 1  ON 40
eH1_1                -6.398211e-02 1 1  ON 41
eH1_2                -4.261096e-02 1 1  ON 42
eH1_3                -4.056407e-02 1 1  ON 43
eH1_4                -2.741806e-03 1 1  ON 44
eH1_5                 8.292441e-03 1 1  ON 45
eH1_6                 3.791336e-02 1 1  ON 46
eH1_7                 4.572823e-02 1 1  ON 47
eH1_8                 3.049480e-02 1 1  ON 48
eH1_9                 8.898059e-02 1 1  ON 49
eH2_0                -1.673548e-01 1 1  ON 50
eH2_1                -6.686951e-02 1 1  ON 51
eH2_2                -4.597035e-02 1 1  ON 52
eH2_3                -4.367090e-02 1 1  ON 53
eH2_4                -5.523682e-03 1 1  ON 54
eH2_5                 5.854398e-03 1 1  ON 55
eH2_6                 3.589182e-02 1 1  ON 56
eH2_7                 4.283057e-02 1 1  ON 57
eH2_8                 2.706610e-02 1 1  ON 58
eH2_9                 9.318222e-02 1 1  ON 59
  </optVariables>
eC
Array
eH1
Array
eH2
Array
eO
Array
ud
Array
uu
Array
   Restore the number of walkers to 1, removing 0 walkers.
</opt>
</optimization-report>
  QMC Execution time = 2.0911e+02 secs
  Reusing QMCFixedSampleLinearOptimize
 Using QMCCostFunction::QMCCostFunction
   Going to include the derivatives of NonLocalECP
 Using Default Cost Function: Cost = <|E-E_ff|^2>

=========================================================
[...]

Inside this version of call_engine, dep_ptr->n_tot(): 60
Check correct_vf_var_size: 183, current size: 0
Inside version of engine_update_build_matrix that takes matrices hh and ss as input
solving harmonic davidson linear method for identity shift 9.0949e+07, overlap shift 9.0949e+08 and omega 0.0000e+00

iteration solving starts here(engine) 


davidson iteration    0:   krylov dim =   1   energy =     -22.437828922483       residual = 1.08e-05           smallest_sin_value = 1.00e+00
davidson iteration    1:   krylov dim =   2   energy =     -22.437828922483       residual = 6.60e-06           smallest_sin_value = 1.00e+00
davidson iteration    2:   krylov dim =   3   energy =     -22.437828922483       residual = 2.18e-06           smallest_sin_value = 1.00e+00
davidson iteration    3:   krylov dim =   4   energy =     -22.437828922483       residual = 9.70e-07           smallest_sin_value = 1.00e+00
davidson iteration    4:   krylov dim =   5   energy =     -22.437828922483       residual = 1.01e-06           smallest_sin_value = 1.00e+00
davidson iteration    5:   krylov dim =   6   energy =     -22.437828922483       residual = 2.61e-07           smallest_sin_value = 1.00e+00
davidson iteration    6:   krylov dim =   7   energy =     -22.437828910549       residual = 1.11e-07           smallest_sin_value = 1.00e+00
davidson iteration    7:   krylov dim =   8   energy =     -22.437828907924       residual = 2.75e-08           smallest_sin_value = 1.00e+00
davidson iteration    8:   krylov dim =   9   energy =     -22.437829011561       residual = 2.03e-08           smallest_sin_value = 1.00e+00
davidson iteration    9:   krylov dim =  10   energy =     -22.437828909088       residual = 2.26e-09           smallest_sin_value = 1.00e+00
davidson solver converged in          9 iterations

On rank 0, check n_tot: 61 and evec_eigen.size(): 61
The largest weight on the derivative vector for shift 9.0949e+07 is 1.696828e-12

solving harmonic davidson linear method for identity shift 3.6380e+08, overlap shift 3.6380e+09 and omega 0.0000e+00

iteration solving starts here(engine) 


davidson iteration    0:   krylov dim =   1   energy =     -22.437828922483       residual = 1.08e-05           smallest_sin_value = 1.00e+00
davidson iteration    1:   krylov dim =   2   energy =     -22.437828922483       residual = 6.60e-06           smallest_sin_value = 1.00e+00
davidson iteration    2:   krylov dim =   3   energy =     -22.437828922483       residual = 2.18e-06           smallest_sin_value = 1.00e+00
davidson iteration    3:   krylov dim =   4   energy =     -22.437828922483       residual = 9.70e-07           smallest_sin_value = 1.00e+00
davidson iteration    4:   krylov dim =   5   energy =     -22.437828922483       residual = 1.01e-06           smallest_sin_value = 1.00e+00
davidson iteration    5:   krylov dim =   6   energy =     -22.437828987291       residual = 2.61e-07           smallest_sin_value = 1.00e+00
davidson iteration    6:   krylov dim =   7   energy =     -22.437828952004       residual = 1.11e-07           smallest_sin_value = 1.00e+00
davidson iteration    7:   krylov dim =   8   energy =     -22.437829482335       residual = 2.69e-08           smallest_sin_value = 1.00e+00
davidson iteration    8:   krylov dim =   9   energy =     -22.437829219673       residual = 2.02e-08           smallest_sin_value = 1.00e+00
davidson iteration    9:   krylov dim =  10   energy =     -22.437829038310       residual = 2.25e-09           smallest_sin_value = 1.00e+00
davidson solver converged in          9 iterations

On rank 0, check n_tot: 61 and evec_eigen.size(): 61
The largest weight on the derivative vector for shift 3.6380e+08 is 4.246563e-13

solving harmonic davidson linear method for identity shift 1.4552e+09, overlap shift 1.4552e+10 and omega 0.0000e+00

iteration solving starts here(engine) 


davidson iteration    0:   krylov dim =   1   energy =     -22.437828922483       residual = 1.08e-05           smallest_sin_value = 1.00e+00
davidson iteration    1:   krylov dim =   2   energy =     -22.437828922483       residual = 6.60e-06           smallest_sin_value = 1.00e+00
davidson iteration    2:   krylov dim =   3   energy =     -22.437828922483       residual = 2.18e-06           smallest_sin_value = 1.00e+00
davidson iteration    3:   krylov dim =   4   energy =     -22.437828922483       residual = 9.70e-07           smallest_sin_value = 1.00e+00
davidson iteration    4:   krylov dim =   5   energy =     -22.437828922483       residual = 1.01e-06           smallest_sin_value = 1.00e+00
davidson iteration    5:   krylov dim =   6   energy =     -22.437829376592       residual = 2.61e-07           smallest_sin_value = 1.00e+00
davidson iteration    6:   krylov dim =   7   energy =     -22.437829107235       residual = 1.10e-07           smallest_sin_value = 1.00e+00
davidson iteration    7:   krylov dim =   8   energy =     -22.437828903942       residual = 2.75e-08           smallest_sin_value = 1.00e+00
davidson iteration    8:   krylov dim =   9   energy =     -22.437827405704       residual = 2.08e-08           smallest_sin_value = 1.00e+00
davidson iteration    9:   krylov dim =  10   energy =     -22.437828443678       residual = 2.33e-09           smallest_sin_value = 1.00e+00
davidson solver converged in          9 iterations

On rank 0, check n_tot: 61 and evec_eigen.size(): 61
The largest weight on the derivative vector for shift 1.4552e+09 is 1.060725e-13

About to broadcast update vector

Printing all timers used during this execution:
  eigen solver                               0.286461 seconds

After print_timers
After EngineObj->wfn_update_compute(), N is: 61 and numParams is: 60

************************************************************
Updating the guiding function with the middle shift's update
************************************************************

  Execution time = 1.0132e+02
  </log>
  <optVariables href="FORM.s039.opt.xml">
 uu_0                 2.740464e-01 1 1  ON 0
 uu_1                 9.871199e-02 1 1  ON 1
 uu_2                -1.789348e-02 1 1  ON 2
 uu_3                -8.844684e-02 1 1  ON 3
 uu_4                -1.302108e-01 1 1  ON 4
 uu_5                -1.554886e-01 1 1  ON 5
 uu_6                -1.684344e-01 1 1  ON 6
 uu_7                -1.685696e-01 1 1  ON 7
 uu_8                -1.532109e-01 1 1  ON 8
 uu_9                -1.134781e-01 1 1  ON 9
 ud_0                 4.684857e-01 1 1  ON 10
 ud_1                 1.837655e-01 1 1  ON 11
 ud_2                 3.296582e-02 1 1  ON 12
 ud_3                -5.207274e-02 1 1  ON 13
 ud_4                -1.026928e-01 1 1  ON 14
 ud_5                -1.363251e-01 1 1  ON 15
 ud_6                -1.572411e-01 1 1  ON 16
 ud_7                -1.656824e-01 1 1  ON 17
 ud_8                -1.568720e-01 1 1  ON 18
 ud_9                -1.259911e-01 1 1  ON 19
 eC_0                -6.752962e-01 1 1  ON 20
 eC_1                -5.013891e-01 1 1  ON 21
 eC_2                -1.986864e-01 1 1  ON 22
 eC_3                 2.124514e-02 1 1  ON 23
 eC_4                 1.645452e-01 1 1  ON 24
 eC_5                 2.849752e-01 1 1  ON 25
 eC_6                 2.994825e-01 1 1  ON 26
 eC_7                 3.274239e-01 1 1  ON 27
 eC_8                 2.288152e-01 1 1  ON 28
 eC_9                 5.040161e-02 1 1  ON 29
 eO_0                -1.212220e+00 1 1  ON 30
 eO_1                -8.194803e-01 1 1  ON 31
 eO_2                -3.257003e-01 1 1  ON 32
 eO_3                 1.036847e-03 1 1  ON 33
 eO_4                 2.267285e-01 1 1  ON 34
 eO_5                 3.689307e-01 1 1  ON 35
 eO_6                 4.049835e-01 1 1  ON 36
 eO_7                 4.323272e-01 1 1  ON 37
 eO_8                 4.458323e-01 1 1  ON 38
 eO_9                 3.337851e-01 1 1  ON 39
eH1_0                -1.640629e-01 1 1  ON 40
eH1_1                -6.389656e-02 1 1  ON 41
eH1_2                -4.268757e-02 1 1  ON 42
eH1_3                -4.072959e-02 1 1  ON 43
eH1_4                -2.889817e-03 1 1  ON 44
eH1_5                 8.441032e-03 1 1  ON 45
eH1_6                 3.809111e-02 1 1  ON 46
eH1_7                 4.559651e-02 1 1  ON 47
eH1_8                 3.047342e-02 1 1  ON 48
eH1_9                 8.891978e-02 1 1  ON 49
eH2_0                -1.674521e-01 1 1  ON 50
eH2_1                -6.666927e-02 1 1  ON 51
eH2_2                -4.595253e-02 1 1  ON 52
eH2_3                -4.351147e-02 1 1  ON 53
eH2_4                -5.583956e-03 1 1  ON 54
eH2_5                 5.668049e-03 1 1  ON 55
eH2_6                 3.562671e-02 1 1  ON 56
eH2_7                 4.287363e-02 1 1  ON 57
eH2_8                 2.714050e-02 1 1  ON 58
eH2_9                 9.310769e-02 1 1  ON 59
  </optVariables>
eC
Array
eH1
Array
eH2
Array
eO
Array
ud
Array
uu
Array
   Restore the number of walkers to 1, removing 0 walkers.
</opt>
</optimization-report>

*************************************************************
Generating a new sample based on the updated guiding function
*************************************************************

<optimization-report>
<vmc stage="main" blocks="125">
  Cannot make clones again. Use existing 1 clones
  Initial partition of walkers 0 1 
  Using Particle by Particle moves
  Walker moves without drift
  Total Sample Size   =2000000
  Walker distribution on root = 0 1 
  Using Locality Approximation
====================================================
  SimpleFixedNodeBranch::finalize after a VMC block
    QMC counter        = 39
    time step          = 0.05
    reference energy   = -22.3529
    reference variance = 0.420231
====================================================
  Execution time = 7.4118e+01
</vmc>
<opt stage="setup">
  <log>
   Reading configurations from h5FileRoot FORM.s039
  Using Nonlocal PP in Opt: NonLocalECP
   Number of samples loaded to each thread : 15625 
  VMC Eavg = -2.2437e+01
  VMC Evar = 5.6013e-01
  Total weights = 2.0000e+06
  Execution time = 6.4602e+00
  </log>
</opt>
<opt stage="main" walkers="15625">
  <log>

******************************************************************
Comparing different shifts' cost function values on updated sample
******************************************************************

Start of engine's reset
Before block part of reset
end of engine's reset
Restored printouts from recurive_blocking in energy_target_accu

Crude block analysis of variance gives:     variance =       0.560198531395
                                         uncertainty =       0.004641346636

Now for a blocking analysis of energy uncertainty:

energy and target function accumulation statistics:


Restored printouts from recurive_blocking in energy_target_accu

Crude block analysis of variance gives:     variance =       0.560198531395
                                         uncertainty =       0.004641346636

Now for a blocking analysis of energy uncertainty:

  error estimate for blocks of size 2^( 1) =       0.000529213718
  error estimate for blocks of size 2^( 2) =       0.000549794107
  error estimate for blocks of size 2^( 3) =       0.000568811540
  error estimate for blocks of size 2^( 4) =       0.000582891792
  error estimate for blocks of size 2^( 5) =       0.000592654806
  error estimate for blocks of size 2^( 6) =       0.000598454440
  error estimate for blocks of size 2^( 7) =       0.000601197769

      target function =                  N/A
              le_mean =     -22.436754725060
             les_mean =     503.968096630960
             stat err =       0.000593799702
             autocorr =       1.258976906222
              std dev =       0.748421217308
             le_variance =       0.560134318516

Start of engine's reset
Before block part of reset
end of engine's reset
Restored printouts from recurive_blocking in energy_target_accu

Crude block analysis of variance gives:     variance =       0.560198531394
                                         uncertainty =       0.004641346636

Now for a blocking analysis of energy uncertainty:

energy and target function accumulation statistics:


Restored printouts from recurive_blocking in energy_target_accu

Crude block analysis of variance gives:     variance =       0.560198531394
                                         uncertainty =       0.004641346636

Now for a blocking analysis of energy uncertainty:

  error estimate for blocks of size 2^( 1) =       0.000529213718
  error estimate for blocks of size 2^( 2) =       0.000549794107
  error estimate for blocks of size 2^( 3) =       0.000568811540
  error estimate for blocks of size 2^( 4) =       0.000582891792
  error estimate for blocks of size 2^( 5) =       0.000592654806
  error estimate for blocks of size 2^( 6) =       0.000598454440
  error estimate for blocks of size 2^( 7) =       0.000601197769

      target function =                  N/A
              le_mean =     -22.436754725060
             les_mean =     503.968096630959
             stat err =       0.000593799702
             autocorr =       1.258976906234
              std dev =       0.748421217307
             le_variance =       0.560134318516

Start of engine's reset
Before block part of reset
end of engine's reset
Restored printouts from recurive_blocking in energy_target_accu

Crude block analysis of variance gives:     variance =       0.560198531394
                                         uncertainty =       0.004641346636

Now for a blocking analysis of energy uncertainty:

energy and target function accumulation statistics:


Restored printouts from recurive_blocking in energy_target_accu

Crude block analysis of variance gives:     variance =       0.560198531394
                                         uncertainty =       0.004641346636

Now for a blocking analysis of energy uncertainty:

  error estimate for blocks of size 2^( 1) =       0.000529213718
  error estimate for blocks of size 2^( 2) =       0.000549794107
  error estimate for blocks of size 2^( 3) =       0.000568811540
  error estimate for blocks of size 2^( 4) =       0.000582891792
  error estimate for blocks of size 2^( 5) =       0.000592654806
  error estimate for blocks of size 2^( 6) =       0.000598454440
  error estimate for blocks of size 2^( 7) =       0.000601197769

      target function =                  N/A
              le_mean =     -22.436754725060
             les_mean =     503.968096630959
             stat err =       0.000593799702
             autocorr =       1.258976906223
              std dev =       0.748421217307
             le_variance =       0.560134318516

Start of engine's reset
Before block part of reset
end of engine's reset
Restored printouts from recurive_blocking in energy_target_accu

Crude block analysis of variance gives:     variance =       0.560198531394
                                         uncertainty =       0.004641346636

Now for a blocking analysis of energy uncertainty:

energy and target function accumulation statistics:


Restored printouts from recurive_blocking in energy_target_accu

Crude block analysis of variance gives:     variance =       0.560198531394
                                         uncertainty =       0.004641346636

Now for a blocking analysis of energy uncertainty:

  error estimate for blocks of size 2^( 1) =       0.000529213718
  error estimate for blocks of size 2^( 2) =       0.000549794107
  error estimate for blocks of size 2^( 3) =       0.000568811540
  error estimate for blocks of size 2^( 4) =       0.000582891792
  error estimate for blocks of size 2^( 5) =       0.000592654806
  error estimate for blocks of size 2^( 6) =       0.000598454440
  error estimate for blocks of size 2^( 7) =       0.000601197769

      target function =                  N/A
              le_mean =     -22.436754725060
             les_mean =     503.968096630960
             stat err =       0.000593799702
             autocorr =       1.258976906229
              std dev =       0.748421217308
             le_variance =       0.560134318516


        shift_i        shift_s       max param change    cost function value
   ------------   ------------   --------------------   --------------------
            N/A            N/A                    N/A       -22.436754725060        initial
     9.0949e+07     9.0949e+08             1.6968e-12       -22.436754725060
     3.6380e+08     3.6380e+09             4.2466e-13       -22.436754725060
     1.4552e+09     1.4552e+10             1.0607e-13       -22.436754725060  <--

*****************************************************************************
Applying the update for shift_i =   1.4552e+09     and shift_s =   1.4552e+10
*****************************************************************************

  Execution time = 1.0642e+02
  </log>
  <optVariables href="FORM.s039.opt.xml">
 uu_0                 2.740464e-01 1 1  ON 0
 uu_1                 9.871199e-02 1 1  ON 1
 uu_2                -1.789348e-02 1 1  ON 2
 uu_3                -8.844684e-02 1 1  ON 3
 uu_4                -1.302108e-01 1 1  ON 4
 uu_5                -1.554886e-01 1 1  ON 5
 uu_6                -1.684344e-01 1 1  ON 6
 uu_7                -1.685696e-01 1 1  ON 7
 uu_8                -1.532109e-01 1 1  ON 8
 uu_9                -1.134781e-01 1 1  ON 9
 ud_0                 4.684857e-01 1 1  ON 10
 ud_1                 1.837655e-01 1 1  ON 11
 ud_2                 3.296582e-02 1 1  ON 12
 ud_3                -5.207274e-02 1 1  ON 13
 ud_4                -1.026928e-01 1 1  ON 14
 ud_5                -1.363251e-01 1 1  ON 15
 ud_6                -1.572411e-01 1 1  ON 16
 ud_7                -1.656824e-01 1 1  ON 17
 ud_8                -1.568720e-01 1 1  ON 18
 ud_9                -1.259911e-01 1 1  ON 19
 eC_0                -6.752962e-01 1 1  ON 20
 eC_1                -5.013891e-01 1 1  ON 21
 eC_2                -1.986864e-01 1 1  ON 22
 eC_3                 2.124514e-02 1 1  ON 23
 eC_4                 1.645452e-01 1 1  ON 24
 eC_5                 2.849752e-01 1 1  ON 25
 eC_6                 2.994825e-01 1 1  ON 26
 eC_7                 3.274239e-01 1 1  ON 27
 eC_8                 2.288152e-01 1 1  ON 28
 eC_9                 5.040161e-02 1 1  ON 29
 eO_0                -1.212220e+00 1 1  ON 30
 eO_1                -8.194803e-01 1 1  ON 31
 eO_2                -3.257003e-01 1 1  ON 32
 eO_3                 1.036847e-03 1 1  ON 33
 eO_4                 2.267285e-01 1 1  ON 34
 eO_5                 3.689307e-01 1 1  ON 35
 eO_6                 4.049835e-01 1 1  ON 36
 eO_7                 4.323272e-01 1 1  ON 37
 eO_8                 4.458323e-01 1 1  ON 38
 eO_9                 3.337851e-01 1 1  ON 39
eH1_0                -1.640629e-01 1 1  ON 40
eH1_1                -6.389656e-02 1 1  ON 41
eH1_2                -4.268757e-02 1 1  ON 42
eH1_3                -4.072959e-02 1 1  ON 43
eH1_4                -2.889817e-03 1 1  ON 44
eH1_5                 8.441032e-03 1 1  ON 45
eH1_6                 3.809111e-02 1 1  ON 46
eH1_7                 4.559651e-02 1 1  ON 47
eH1_8                 3.047342e-02 1 1  ON 48
eH1_9                 8.891978e-02 1 1  ON 49
eH2_0                -1.674521e-01 1 1  ON 50
eH2_1                -6.666927e-02 1 1  ON 51
eH2_2                -4.595253e-02 1 1  ON 52
eH2_3                -4.351147e-02 1 1  ON 53
eH2_4                -5.583956e-03 1 1  ON 54
eH2_5                 5.668049e-03 1 1  ON 55
eH2_6                 3.562671e-02 1 1  ON 56
eH2_7                 4.287363e-02 1 1  ON 57
eH2_8                 2.714050e-02 1 1  ON 58
eH2_9                 9.310769e-02 1 1  ON 59
  </optVariables>
eC
Array
eH1
Array
eH2
Array
eO
Array
ud
Array
uu
Array
   Restore the number of walkers to 1, removing 0 walkers.
</opt>
</optimization-report>
  QMC Execution time = 2.0801e+02 secs
  Total Execution time = 8.4802e+03 secs

=========================================================
  A new xml input file : FORM.s039.cont.xml
